# vtk DataFile Version 3.0
vtk output
ASCII
DATASET POLYDATA
POINTS 13638 float
-90.6277 -9.96249 -83.1879 -90.814 -9.78246 -83.1626 -90.7719 -9.7589 -83.1212 
-90.8169 -9.77884 -83.1621 -91.5472 -8.97615 -83.0473 -91.5021 -8.98968 -82.88 
-91.9522 -8.40508 -82.9636 -92.7795 -6.83782 -82.7285 -92.8251 -6.64368 -82.6984 
-92.7654 -6.80019 -82.5284 -92.4699 -7.51732 -82.8314 -75.5711 -13.3061 -83.4445 
-75.8544 -13.4012 -83.465 -75.9279 -13.4671 -83.2691 -76.5017 -13.4847 -83.4902 
-76.7075 -13.5041 -83.4971 -77.5898 -13.5555 -83.5216 -77.6852 -13.7024 -83.1184 
-78.0938 -13.6247 -83.5419 -78.3602 -13.7354 -83.2843 -78.3404 -13.6649 -83.5529 
-79.1431 -13.8391 -83.5955 -79.4294 -13.8774 -83.6069 -79.3583 -13.9567 -83.3195 
-80.2479 -13.9933 -83.6404 -80.4382 -14.1783 -83.2095 -81.1593 -14.0224 -83.6619 
-81.494 -14.0227 -83.6681 -81.7218 -14.0795 -83.4721 -81.3812 -14.4193 -82.8376 
-80.8098 -14.0098 -83.6534 -82.2357 -14.3016 -83.0359 -81.8235 -14.0247 -83.6745 
-83.8119 -13.8465 -83.6827 -83.8603 -13.8346 -83.5716 -83.1992 -13.9503 -83.688 
-83.0717 -14.0889 -83.3089 -82.7391 -13.9756 -83.6835 -82.2118 -14.02 -83.6809 
-83.8715 -14.1974 -82.6801 -83.893 -13.831 -83.6817 -84.1753 -13.7373 -83.6719 
-84.7089 -13.563 -83.6539 -84.8572 -13.5174 -83.6494 -85.1503 -13.8145 -82.6191 
-86.0996 -13.0352 -83.5952 -86.3515 -12.9341 -83.5837 -86.7071 -12.8721 -83.2818 
-86.0794 -13.3626 -82.853 -85.9666 -13.0796 -83.5999 -86.7228 -13.2313 -82.4625 
-86.8448 -12.7303 -83.5603 -87.6603 -12.3206 -83.5099 -87.6752 -12.3135 -83.509 
-87.6804 -12.3102 -83.5086 -87.8719 -12.4834 -82.4293 -88.831 -11.5486 -83.4081 
-88.8577 -11.527 -83.4052 -88.9298 -11.6213 -82.3573 -89.876 -10.6859 -83.2896 
-89.8879 -10.6745 -83.288 -89.913 -10.7138 -82.2585 -90.8388 -9.80899 -82.1264 
-91.7046 -8.86208 -81.9932 -92.2071 -8.04076 -82.9101 -92.2756 -7.94467 -82.896 
-92.4631 -7.81864 -81.7564 -93.037 -5.66476 -82.0853 -92.992 -6.74525 -81.3717 
-93.0092 -5.71137 -82.5529 -93.0309 -4.45828 -82.3531 -92.9258 -3.59242 -82.2129 
-93.0871 -4.57122 -81.642 -93.0271 -5.11085 -82.4573 -92.256 -1.47268 -81.862 
-92.1899 -1.27751 -81.8297 -92.2152 -1.51337 -81.6649 -92.6348 -2.47206 -82.0286 
-92.6064 -2.39029 -82.015 -92.5861 -2.49772 -81.9333 -92.7474 -2.88299 -82.0963 
-71.1235 -10.5702 -82.9257 -71.5208 -10.7252 -82.9577 -71.5835 -10.794 -82.826 
-71.6433 -10.7864 -82.9698 -72.7316 -11.4316 -83.0929 -72.8746 -11.5518 -83.1147 
-72.8429 -11.5408 -82.8936 -72.5298 -11.2869 -83.066 -73.5316 -12.0667 -83.209 
-73.9558 -12.3992 -83.2699 -73.8867 -12.4145 -82.6931 -74.3443 -12.6858 -83.3229 
-75.0459 -13.0973 -83.4015 -74.9297 -13.2339 -82.5036 -76.3399 -13.7426 -82.8709 
-75.9806 -13.8238 -82.4304 -75.2415 -13.1991 -83.4214 -76.8156 -14.1066 -82.3154 
-76.6052 -13.4993 -83.4945 -78.2889 -14.0466 -82.558 -77.6985 -14.2459 -82.1877 
-76.6463 -13.5036 -83.4959 -76.6255 -13.5022 -83.4953 -78.5686 -14.441 -81.9227 
-79.1674 -14.3809 -82.2409 -80.8138 -14.583 -82.5037 -80.2095 -14.5807 -82.3101 
-81.2097 -14.9216 -81.7897 -82.8849 -14.4938 -82.5235 -82.1643 -14.7556 -82.1293 
-83.0667 -14.8084 -81.7151 -84.2172 -14.6036 -81.4861 -85.2139 -14.2109 -81.7365 
-85.8078 -13.7806 -82.228 -85.9281 -14.0084 -81.5225 -86.9174 -13.4494 -81.4309 
-87.9745 -12.6457 -81.3681 -88.9777 -11.7516 -81.2983 -89.9509 -10.8228 -81.2184 
-90.9053 -9.87532 -81.1086 -91.8205 -8.88881 -80.9195 -92.6621 -7.8009 -80.5382 
-93.2692 -5.70994 -80.7073 -93.1702 -6.76098 -80.473 -92.9748 -3.6284 -81.2633 
-93.2134 -4.55055 -80.7612 -92.9064 -3.45722 -82.191 -91.9011 -0.605207 -81.3922 
-92.2857 -1.59121 -80.667 -91.93 -0.539966 -81.7071 -92.7368 -2.76222 -80.7261 
-91.7124 0.343811 -81.5619 -91.5531 1.09043 -81.4397 -91.7432 0.168127 -80.8483 
-91.8365 -0.175411 -81.6471 -91.3398 2.17801 -81.2621 -91.3098 2.33759 -81.2361 
-91.3054 2.13817 -81.1183 -91.4111 1.77708 -81.3275 -68.5576 -9.15972 -82.6531 
-68.6678 -9.23066 -82.6665 -68.6458 -9.22915 -82.4962 -68.2771 -8.94625 -82.6139 
-69.3275 -9.67468 -82.7496 -69.7294 -9.87528 -82.789 -69.6402 -9.97945 -82.2705 
-70.1877 -10.1412 -82.8399 -70.8695 -10.4624 -82.9038 -70.6636 -10.7017 -82.0308 
-72.2971 -11.383 -82.412 -71.7305 -11.3732 -81.8597 -70.9253 -10.4911 -82.9094 
-73.0213 -11.9753 -82.0159 -72.7622 -12.1352 -81.45 -73.4589 -12.5485 -81.3606 
-72.0218 -10.9717 -83.0063 -73.7079 -12.468 -81.8851 -74.7622 -13.3692 -81.4348 
-75.869 -14.1233 -81.3121 -77.3099 -14.5111 -81.7189 -76.9157 -14.6142 -81.3003 
-77.7851 -14.8606 -81.1771 -79.1689 -14.8185 -81.3774 -78.5042 -14.8447 -81.2583 
-79.3036 -15.3285 -80.4392 -80.2613 -15.1246 -81.0678 -81.3968 -15.3428 -80.8306 
-82.163 -15.1732 -81.1714 -83.0308 -15.2782 -80.5368 -84.1243 -15.0968 -80.3155 
-85.0256 -14.5926 -80.9167 -85.8415 -14.398 -80.4292 -87.0008 -13.6681 -80.3454 
-88.0446 -12.8462 -80.2684 -89.0607 -11.9384 -80.2302 -90.0492 -10.9784 -80.1995 
-91.0051 -10.0144 -80.0923 -91.9056 -9.05144 -79.8773 -92.578 -8.256 -79.5382 
-93.3229 -6.41846 -80.0561 -93.1202 -7.17376 -79.6301 -93.1318 -3.92448 -80.4296 
-93.3201 -4.83751 -79.9424 -93.3769 -6.02082 -79.4358 -92.033 -0.818492 -80.5766 
-92.3008 -1.45471 -79.9635 -92.6936 -2.5383 -79.5573 -93.1205 -3.80072 -79.6557 
-91.5463 1.12783 -80.5118 -91.8476 0.225909 -79.8151 -91.511 1.28192 -81.4084 
-92.0811 -0.679861 -79.8609 -91.162 2.95592 -80.6417 -91.428 1.86929 -79.899 
-91.1819 3.04384 -81.1209 -90.8788 4.65123 -80.8586 -90.8436 4.69051 -80.8248 
-91.0277 3.89168 -80.9827 -91.0336 3.76552 -80.1745 -90.8678 4.71151 -80.8488 
-91.0844 3.56116 -81.0365 -90.6777 5.53505 -80.7138 -90.5935 5.82865 -80.6653 
-90.6553 5.48285 -80.4116 -90.8623 4.73616 -80.8448 -66.4535 -7.49429 -82.3484 
-66.7074 -7.69458 -82.385 -66.68 -7.67973 -82.014 -65.8249 -7.00932 -82.2594 
-67.1462 -8.04538 -82.4492 -67.68 -8.47605 -82.5278 -67.6369 -8.48058 -81.7457 
-67.8416 -8.60702 -82.5517 -68.5951 -9.29042 -81.4767 -69.5575 -10.0853 -81.2237 
-70.53 -10.8571 -80.9855 -71.5289 -11.6185 -80.7612 -72.554 -12.3855 -80.5424 
-74.1817 -13.1797 -80.9553 -73.6149 -13.1159 -80.4036 -74.9399 -13.8189 -80.5287 
-74.6426 -13.9138 -80.0084 -75.3491 -14.3405 -79.8687 -75.7838 -14.3977 -80.2521 
-76.844 -14.9889 -80.1729 -78.4314 -15.253 -80.5427 -77.7799 -15.2849 -80.2806 
-78.6963 -15.6538 -79.7212 -79.5987 -15.8715 -79.3577 -80.3207 -15.6946 -79.8051 
-82.0197 -15.5135 -80.3739 -81.2392 -15.6495 -80.0558 -82.1752 -15.7958 -79.5777 
-83.3132 -15.6743 -79.3251 -84.2771 -15.3407 -79.5753 -84.8543 -14.9558 -80.1174 
-85.0117 -15.1301 -79.4049 -86.012 -14.62 -79.3121 -87.0847 -13.93 -79.2228 
-88.1907 -13.1718 -79.0879 -89.3168 -12.1223 -79.2637 -90.2873 -11.1549 -79.259 
-91.2216 -10.1791 -79.1456 -92.0982 -9.19965 -78.9296 -92.8864 -8.09161 -78.6273 
-93.2952 -6.94216 -78.7208 -93.357 -4.93488 -78.8994 -93.4452 -6.09732 -78.2412 
-92.4154 -1.64648 -79.0661 -92.7639 -2.7626 -78.2675 -93.1163 -3.82476 -78.571 
-91.6959 0.927941 -79.672 -91.9223 0.328776 -79.0952 -92.1615 -0.62297 -78.7951 
-91.2235 2.81295 -79.4955 -91.4782 1.87433 -78.716 -91.7477 1.02051 -78.9299 
-90.898 4.54845 -79.7005 -91.0926 3.62532 -79.0317 -90.3865 6.30789 -80.0671 
-90.6764 5.3617 -79.2877 -90.4214 6.3779 -80.5744 -89.8032 8.70102 -80.192 
-89.7853 8.78691 -80.1396 -89.8653 8.00311 -80.3046 -89.8578 7.90801 -79.5624 
-89.7951 8.80309 -80.1756 -90.1186 7.22554 -80.4335 -89.9335 7.77596 -80.3422 
-90.0848 7.14887 -79.7841 -90.2544 6.83967 -80.4976 -89.7981 8.83988 -80.1698 
-89.8828 9.65306 -80.0415 -89.8777 9.63874 -80.0226 -89.9597 10.3592 -79.9301 
-89.9995 11.1398 -79.8062 -89.9616 10.2713 -79.4118 -89.8859 9.68667 -80.0361 
-89.976 11.9994 -79.6684 -89.8776 12.5977 -79.5711 -90.0155 11.9422 -79.1891 
-90.0012 11.2024 -79.7962 -89.1385 14.6217 -79.2342 -88.9899 14.9544 -79.1783 
-89.1929 14.5456 -78.9127 -89.5383 13.7366 -79.3829 -89.5032 13.8119 -79.3703 
-89.5509 13.7158 -79.3089 -89.6177 13.5008 -79.4221 -87.2292 17.957 -78.6664 
-87.1778 18.0429 -78.6517 -87.2567 17.9366 -78.5842 -87.46 17.6149 -78.7253 
-85.0499 21.2187 -78.1053 -85.04 21.2338 -78.1027 -85.0814 21.2068 -78.0906 
-85.0905 21.1629 -78.115 -63.6439 -5.41844 -81.9651 -63.8061 -5.53385 -81.9865 
-63.7846 -5.51201 -81.7634 -63.156 -5.06847 -81.9002 -64.3453 -5.92223 -82.0585 
-64.7604 -6.2212 -82.1139 -64.7188 -6.22565 -81.5459 -65.0521 -6.43477 -82.1534 
-65.7329 -6.93884 -82.2464 -65.6691 -6.96645 -81.2999 -65.7591 -6.95869 -82.2501 
-66.6279 -7.73478 -81.0316 -67.589 -8.52708 -80.7517 -68.5471 -9.33323 -80.4737 
-69.4959 -10.137 -80.2134 -70.4211 -10.9087 -79.9913 -71.353 -11.6872 -79.745 
-72.3614 -12.529 -79.4907 -73.4089 -13.368 -79.3107 -74.433 -14.1479 -79.1354 
-75.9286 -14.8184 -79.4095 -75.4546 -14.7896 -79.0135 -76.2726 -15.2862 -78.7408 
-52.6155 3.30448 -80.3688 -52.7801 3.05102 -80.4123 -52.7161 3.02233 -80.1986 
-52.8761 2.92381 -80.4344 -53.1152 2.63227 -80.4854 -76.7648 -15.3343 -79.1035 
-77.9378 -15.7965 -79.0893 -79.0284 -16.1631 -78.7494 -51.4755 5.76414 -79.955 
-51.5598 5.53638 -79.9929 -51.4618 5.52577 -79.8018 -51.6008 5.42084 -80.0121 
-51.9764 4.45851 -80.1727 -51.9269 4.45986 -80.0904 -52.0015 4.39528 -80.1833 
-52.0712 4.25734 -80.2066 -79.8645 -16.4199 -78.3808 -80.3107 -16.0857 -79.0035 
-80.6214 -16.4119 -78.4337 -50.425 8.75191 -79.4585 -50.6166 8.01015 -79.5805 
-50.3899 8.06199 -78.9594 -50.949 7.11795 -79.7291 -50.9857 7.02177 -79.7451 
-50.9313 7.04251 -79.6475 -51.0103 6.97345 -79.7533 -51.0776 6.81365 -79.78 
-81.1577 -16.096 -79.0255 -82.1627 -16.2856 -78.3892 -50.3368 9.47649 -79.3411 
-50.1954 9.35111 -78.9154 -50.3227 9.88066 -79.2763 -50.1715 10.1985 -78.795 
-50.301 10.2783 -79.2124 -50.4225 8.76659 -79.4561 -83.224 -16.1296 -78.1947 
-50.2391 11.1277 -79.0756 -49.9938 11.1463 -78.0859 -50.1868 11.6644 -78.9889 
-50.1121 11.9423 -78.8301 -50.1666 11.9049 -78.9501 -50.2589 10.7876 -79.1303 
[...]
POINT_DATA 13638
SCALARS scalars float
LOOKUP_TABLE default
-1000 -1000 -1000 -1000 -1000 -1000 -1000 -1000 -1000 
-1000 -1000 -1000 -1000 -1000 -1000 -1000 -1000 -1000 
-1000 -1000 -1000 -1000 -1000 -1000 -1000 -1000 -1000 
-1000 -1000 -1000 -1000 -1000 -1000 -1000 -1000 -1000 
-1000 -1000 -1000 -1000 -1000 -1000 -1000 -1000 -1000 
-1000 -1000 -1000 -1000 -1000 -1000 -1000 -1000 -1000 
-1000 -1000 -1000 -1000 -1000 -1000 -1000 -1000 -1000 
-1000 -1000 -1000 -1000 -1000 -1000 -1000 -1000 -1000 
-1000 -1000 -1000 -1000 -1000 -1000 -1000 -1000 -1000 
-1000 -1000 -1000 -1000 -1000 -1000 -1000 -1000 -1000 
-1000 -1000 -1000 -1000 -1000 -1000 -1000 -1000 -1000 
-1000 -1000 -1000 -1000 -1000 -1000 -1000 -1000 -1000 
-1000 -1000 -1000 -1000 -1000 -1000 -1000 -1000 -1000 
-1000 -1000 -1000 -1000 -1000 -1000 -1000 -1000 -1000 
-1000 -1000 -1000 -1000 -1000 -1000 -1000 -1000 -1000 
-1000 -1000 -1000 -1000 -1000 -1000 -1000 -1000 -1000 
-1000 -1000 -1000 -1000 -1000 -1000 -1000 -1000 -1000 
-1000 -1000 -1000 -1000 -1000 -1000 -1000 -1000 -1000 
-1000 -1000 -1000 -1000 -1000 -1000 -1000 -1000 -1000 
-1000 -1000 -1000 -1000 -1000 -1000 -1000 -1000 -1000 
-1000 -1000 -1000 -1000 -1000 -1000 -1000 -1000 -1000 
-1000 -1000 -1000 -1000 -1000 -1000 -1000 -1000 -1000 
-1000 -1000 -1000 -1000 -1000 -1000 -1000 -1000 -1000 
-1000 -1000 -1000 -1000 -1000 -1000 -1000 -1000 -1000 
-1000 -1000 -1000 -1000 -1000 -1000 -1000 -1000 -1000 
-1000 -1000 -1000 -1000 -1000 -1000 -1000 -1000 -1000 
-1000 -1000 -1000 -1000 -1000 -1000 -1000 -1000 -1000 
-1000 -1000 -1000 -1000 -1000 -1000 -1000 -1000 -1000 
-1000 -1000 -1000 -1000 -1000 -1000 -1000 -1000 -1000 
-1000 -1000 -1000 -1000 -1000 -1000 -1000 -1000 -1000 
-1000 -1000 -1000 -1000 -1000 -1000 -1000 -1000 -1000 
-1000 -1000 -1000 -1000 -1000 -1000 -1000 -1000 -1000 
-1000 -1000 -1000 -1000 -1000 -1000 -1000 -1000 -1000 
-1000 -1000 -1000 -1000 -1000 -1000 -1000 -1000 -1000 
-1000 -1000 -1000 -1000 -1000 -1000 -1000 -1000 -1000 
-1000 -1000 -1000 -1000 -1000 -1000 -1000 -1000 -1000 
-1000 -1000 -1000 -1000 -1000 -1000 -1000 -1000 -1000 
-1000 -1000 -1000 -1000 -1000 -1000 -1000 -1000 -1000 
-1000 -1000 -1000 -1000 -1000 -1000 -1000 -1000 -1000 
-1000 -1000 -1000 -1000 -1000 -1000 -1000 -1000 -1000 
-1000 -1000 -1000 -1000 -1000 -1000 -1000 -1000 -1000 
-1000 -1000 -1000 -1000 -1000 -1000 -1000 -1000 -1000 
-1000 -1000 -1000 -1000 -1000 -1000 -1000 -1000 -1000 
-1000 -1000 -1000 -1000 -1000 -1000 -1000 -1000 -1000 
-1000 -1000 -1000 -1000 -1000 -1000 -1000 -1000 -1000 
-1000 -1000 -1000 -1000 -1000 -1000 -1000 -1000 -1000 
-1000 -1000 -1000 -1000 -1000 -1000 -1000 -1000 -1000 
-1000 -1000 -1000 -1000 -1000 -1000 -1000 -1000 -1000 
-1000 -1000 -1000 -1000 -1000 -1000 -1000 -1000 -1000 
-1000 -1000 -1000 -1000 -1000 -1000 -1000 -1000 -1000 
-1000 -1000 -1000 -1000 -1000 -1000 -1000 -1000 -1000 
-1000 -1000 -1000 -1000 -1000 -1000 -1000 -1000 -1000 
-1000 -1000 -1000 -1000 -1000 -1000 -1000 -1000 -1000 
-1000 -1000 -1000 -1000 -1000 -1000 -1000 -1000 -1000 
-1000 -1000 -1000 -1000 -1000 -1000 -1000 -1000 -1000 
-1000 -1000 -1000 -1000 -1000 -1000 -1000 -1000 -1000 
-1000 -1000 -1000 -1000 -1000 -1000 -1000 -1000 -1000 
-1000 -1000 -1000 -1000 -1000 -1000 -1000 -1000 -1000 
-1000 -1000 -1000 -1000 -1000 -1000 -1000 -1000 -1000 
-1000 -1000 -1000 -1000 -1000 -1000 -1000 -1000 -1000 
-1000 -1000 -1000 -1000 -1000 -1000 -1000 -1000 -1000 
-1000 -1000 -1000 -1000 -1000 -1000 -1000 -1000 -1000 
-1000 -1000 -1000 -1000 -1000 -1000 -1000 -1000 -1000 
-1000 -1000 -1000 -1000 -1000 -1000 -1000 -1000 -1000 
-1000 -1000 -1000 -1000 -1000 -1000 -1000 -1000 -1000 
-1000 -1000 -1000 -1000 -1000 -1000 -1000 -1000 -1000 
-1000 -1000 -1000 -1000 -1000 -1000 -1000 -1000 -1000 
-1000 -1000 -1000 -1000 -1000 -1000 -1000 -1000 -1000 
-1000 -1000 -1000 -1000 -1000 -1000 -1000 -1000 -1000 
-1000 -1000 -1000 -1000 -1000 -1000 -1000 -1000 -1000 
-1000 -1000 -1000 -1000 -1000 -1000 -1000 -1000 -1000 
-1000 -1000 -1000 -1000 -1000 -1000 -1000 -1000 -1000 
-1000 -1000 -1000 -1000 -1000 -1000 -1000 -1000 -1000 
-1000 -1000 -1000 -1000 -1000 -1000 -1000 -1000 -1000 
-1000 -1000 -1000 -1000 -1000 -1000 -1000 -1000 -1000 
-1000 -1000 -1000 -1000 -1000 -1000 -1000 -1000 -1000 
-1000 -1000 -1000 -1000 -1000 -1000 -1000 -1000 -1000 
-1000 -1000 -1000 -1000 -1000 -1000 -1000 -1000 -1000 
-1000 -1000 -1000 -1000 -1000 -1000 -1000 -1000 -1000 
-1000 -1000 -1000 -1000 -1000 -1000 -1000 -1000 -1000 
-1000 -1000 -1000 -1000 -1000 -1000 -1000 -1000 -1000 
-1000 -1000 -1000 -1000 -1000 -1000 -1000 -1000 -1000 
-1000 -1000 -1000 -1000 -1000 -1000 -1000 -1000 -1000 
-1000 -1000 -1000 -1000 -1000 -1000 -1000 -1000 -1000 
-1000 -1000 -1000 -1000 -1000 -1000 -1000 -1000 -1000 
-1000 -1000 -1000 -1000 -1000 -1000 -1000 -1000 -1000 
-1000 -1000 -1000 -1000 -1000 -1000 -1000 -1000 -1000 
-1000 -1000 -1000 -1000 -1000 -1000 -1000 -1000 -1000 
-1000 -1000 -1000 -1000 -1000 -1000 -1000 -1000 -1000 
-1000 -1000 -1000 -1000 -1000 -1000 -1000 -1000 -1000 
-1000 -1000 -1000 -1000 -1000 -1000 -1000 -1000 -1000 
-1000 -1000 -1000 -1000 -1000 -1000 -1000 -1000 -1000 
-1000 -1000 -1000 -1000 -1000 -1000 -1000 -1000 -1000 
-1000 -1000 -1000 -1000 -1000 -1000 -1000 -1000 -1000 
-1000 -1000 -1000 -1000 -1000 -1000 -1000 -1000 -1000 
-1000 -1000 -1000 -1000 -1000 -1000 -1000 -1000 -1000 
-1000 -1000 -1000 -1000 -1000 -1000 -1000 -1000 -1000 
-1000 -1000 -1000 -1000 -1000 -1000 -1000 -1000 -1000 
-1000 -1000 -1000 -1000 -1000 -1000 -1000 -1000 -1000 
-1000 -1000 -1000 -1000 -1000 -1000 -1000 -1000 -1000 
-1000 -1000 -1000 -1000 -1000 -1000 -1000 -1000 -1000 
-1000 -1000 -1000 -1000 -1000 -1000 -1000 -1000 -1000 
-1000 -1000 -1000 -1000 -1000 -1000 -1000 -1000 -1000 
-1000 -1000 -1000 -1000 -1000 -1000 -1000 -1000 -1000 
-1000 -1000 -1000 -1000 -1000 -1000 -1000 -1000 -1000 
-1000 -1000 -1000 -1000 -1000 -1000 -1000 -1000 -1000 
-1000 -1000 -1000 -1000 -1000 -1000 -1000 -1000 -1000 
-1000 -1000 -1000 -1000 -1000 -1000 -1000 -1000 -1000 
-1000 -1000 -1000 -1000 -1000 -1000 -1000 -1000 -1000 
-1000 -1000 -1000 -1000 -1000 -1000 -1000 -1000 -1000 
-1000 -1000 -1000 -1000 -1000 -1000 -1000 -1000 -1000 
-1000 -1000 -1000 -1000 -1000 -1000 -1000 -1000 -1000 
-1000 -1000 -1000 -1000 -1000 -1000 -1000 -1000 -1000 
-1000 -1000 -1000 -1000 -1000 -1000 -1000 -1000 -1000 
-1000 -1000 -1000 -1000 -1000 -1000 -1000 -1000 -1000 
-1000 -1000 -1000 -1000 -1000 -1000 -1000 -1000 -1000 
-1000 -1000 -1000 -1000 -1000 -1000 -1000 -1000 -1000 
-1000 -1000 -1000 -1000 -1000 -1000 -1000 -1000 -1000 
-1000 -1000 -1000 -1000 -1000 -1000 -1000 -1000 -1000 
-1000 -1000 -1000 -1000 -1000 -1000 -1000 -1000 -1000 
-1000 -1000 -1000 -1000 -1000 -1000 -1000 -1000 -1000 
-1000 -1000 -1000 -1000 -1000 -1000 -1000 -1000 -1000 
-1000 -1000 -1000 -1000 -1000 -1000 -1000 -1000 -1000 
-1000 -1000 -1000 -1000 -1000 -1000 -1000 -1000 -1000 
-1000 -1000 -1000 -1000 -1000 -1000 -1000 -1000 -1000 
-1000 -1000 -1000 -1000 -1000 -1000 -1000 -1000 -1000 
-1000 -1000 -1000 -1000 -1000 -1000 -1000 -1000 -1000 
-1000 -1000 -1000 -1000 -1000 -1000 -1000 -1000 -1000 
-1000 -1000 -1000 -1000 -1000 -1000 -1000 -1000 -1000 
-1000 -1000 -1000 -1000 -1000 -1000 -1000 -1000 -1000 
-1000 -1000 -1000 -1000 -1000 -1000 -1000 -1000 -1000 
-1000 -1000 -1000 -1000 -1000 -1000 -1000 -1000 -1000 
-1000 -1000 -1000 -1000 -1000 -1000 -1000 -1000 -1000 
-1000 -1000 -1000 -1000 -1000 -1000 -1000 -1000 -1000 
-1000 -1000 -1000 -1000 -1000 -1000 -1000 -1000 -1000 
-1000 -1000 -1000 -1000 -1000 -1000 -1000 -1000 -1000 
-1000 -1000 -1000 -1000 -1000 -1000 -1000 -1000 -1000 
-1000 -1000 -1000 -1000 -1000 -1000 -1000 -1000 -1000 
-1000 -1000 -1000 -1000 -1000 -1000 -1000 -1000 -1000 
-1000 -1000 -1000 -1000 -1000 -1000 -1000 -1000 -1000 
-1000 -1000 -1000 -1000 -1000 -1000 -1000 -1000 -1000 
-1000 -1000 -1000 -1000 -1000 -1000 -1000 -1000 -1000 
-1000 -1000 -1000 -1000 -1000 -1000 -1000 -1000 -1000 
-1000 -1000 -1000 -1000 -1000 -1000 -1000 -1000 -1000 
-1000 -1000 -1000 -1000 -1000 -1000 -1000 -1000 -1000 
-1000 -1000 -1000 -1000 -1000 -1000 -1000 -1000 -1000 
-1000 -1000 -1000 -1000 -1000 -1000 -1000 -1000 -1000 
-1000 -1000 -1000 -1000 -1000 -1000 -1000 -1000 -1000 
-1000 -1000 -1000 -1000 -1000 -1000 -1000 -1000 -1000 
-1000 -1000 -1000 -1000 -1000 -1000 -1000 -1000 -1000 
-1000 -1000 -1000 -1000 -1000 -1000 -1000 -1000 -1000 
-1000 -1000 -1000 -1000 -1000 -1000 -1000 -1000 -1000 
-1000 -1000 -1000 -1000 -1000 -1000 -1000 -1000 -1000 
-1000 -1000 -1000 -1000 -1000 -1000 -1000 -1000 -1000 
-1000 -1000 -1000 -1000 -1000 -1000 -1000 -1000 -1000 
-1000 -1000 -1000 -1000 -1000 -1000 -1000 -1000 -1000 
-1000 -1000 -1000 -1000 -1000 -1000 -1000 -1000 -1000 
-1000 -1000 -1000 -1000 -1000 -1000 -1000 -1000 -1000 
-1000 -1000 -1000 -1000 -1000 -1000 -1000 -1000 -1000 
-1000 -1000 -1000 -1000 -1000 -1000 -1000 -1000 -1000 
-1000 -1000 -1000 -1000 -1000 -1000 -1000 -1000 -1000 
-1000 -1000 -1000 -1000 -1000 -1000 -1000 -1000 -1000 
-1000 -1000 -1000 -1000 -1000 -1000 -1000 -1000 -1000 
-1000 -1000 -1000 -1000 -1000 -1000 -1000 -1000 -1000 
-1000 -1000 -1000 -1000 -1000 -1000 -1000 -1000 -1000 
-1000 -1000 -1000 -1000 -1000 -1000 -1000 -1000 -1000 
-1000 -1000 -1000 -1000 -1000 -1000 -1000 -1000 -1000 
-1000 -1000 -1000 -1000 -1000 -1000 -1000 -1000 -1000 
-1000 -1000 -1000 -1000 -1000 -1000 -1000 -1000 -1000 
-1000 -1000 -1000 -1000 -1000 -1000 -1000 -1000 -1000 
-1000 -1000 -1000 -1000 -1000 -1000 -1000 -1000 -1000 
-1000 -1000 -1000 -1000 -1000 -1000 -1000 -1000 -1000 
-1000 -1000 -1000 -1000 -1000 -1000 -1000 -1000 -1000 
-1000 -1000 -1000 -1000 -1000 -1000 -1000 -1000 -1000 
-1000 -1000 -1000 -1000 -1000 -1000 -1000 -1000 -1000 
-1000 -1000 -1000 -1000 -1000 -1000 -1000 -1000 -1000 
-1000 -1000 -1000 -1000 -1000 -1000 -1000 -1000 -1000 
-1000 -1000 -1000 -1000 -1000 -1000 -1000 -1000 -1000 
-1000 -1000 -1000 -1000 -1000 -1000 -1000 -1000 -1000 
-1000 -1000 -1000 -1000 -1000 -1000 -1000 -1000 -1000 
-1000 -1000 -1000 -1000 -1000 -1000 -1000 -1000 -1000 
-1000 -1000 -1000 -1000 -1000 -1000 -1000 -1000 -1000 
-1000 -1000 -1000 -1000 -1000 -1000 -1000 -1000 -1000 
-1000 -1000 -1000 -1000 -1000 -1000 -1000 -1000 -1000 
-1000 -1000 -1000 -1000 -1000 -1000 -1000 -1000 -1000 
-1000 -1000 -1000 -1000 -1000 -1000 -1000 -1000 -1000 
-1000 -1000 -1000 -1000 -1000 -1000 -1000 -1000 -1000 
-1000 -1000 -1000 -1000 -1000 -1000 -1000 -1000 -1000 
-1000 -1000 -1000 -1000 -1000 -1000 -1000 -1000 -1000 
-1000 -1000 -1000 -1000 -1000 -1000 -1000 -1000 -1000 
-1000 -1000 -1000 -1000 -1000 -1000 -1000 -1000 -1000 
-1000 -1000 -1000 -1000 -1000 -1000 -1000 -1000 -1000 
-1000 -1000 -1000 -1000 -1000 -1000 -1000 -1000 -1000 
-1000 -1000 -1000 -1000 -1000 -1000 -1000 -1000 -1000 
-1000 -1000 -1000 -1000 -1000 -1000 -1000 -1000 -1000 
-1000 -1000 -1000 -1000 -1000 -1000 -1000 -1000 -1000 
-1000 -1000 -1000 -1000 -1000 -1000 -1000 -1000 -1000 
-1000 -1000 -1000 -1000 -1000 -1000 -1000 -1000 -1000 
-1000 -1000 -1000 -1000 -1000 -1000 -1000 -1000 -1000 
-1000 -1000 -1000 -1000 -1000 -1000 -1000 -1000 -1000 
-1000 -1000 -1000 -1000 -1000 -1000 -1000 -1000 -1000 
-1000 -1000 -1000 -1000 -1000 -1000 -1000 -1000 -1000 
-1000 -1000 -1000 -1000 -1000 -1000 -1000 -1000 -1000 
-1000 -1000 -1000 -1000 -1000 -1000 -1000 -1000 -1000 
-1000 -1000 -1000 -1000 -1000 -1000 -1000 -1000 -1000 
-1000 -1000 -1000 -1000 -1000 -1000 -1000 -1000 -1000 
-1000 -1000 -1000 -1000 -1000 -1000 -1000 -1000 -1000 
-1000 -1000 -1000 -1000 -1000 -1000 -1000 -1000 -1000 
-1000 -1000 -1000 -1000 -1000 -1000 -1000 -1000 -1000 
-1000 -1000 -1000 -1000 -1000 -1000 -1000 -1000 -1000 
-1000 -1000 -1000 -1000 -1000 -1000 -1000 -1000 -1000 
-1000 -1000 -1000 -1000 -1000 -1000 -1000 -1000 -1000 
-1000 -1000 -1000 -1000 -1000 -1000 -1000 -1000 -1000 
-1000 -1000 -1000 -1000 -1000 -1000 -1000 -1000 -1000 
-1000 -1000 -1000 -1000 -1000 -1000 -1000 -1000 -1000 
-1000 -1000 -1000 -1000 -1000 -1000 -1000 -1000 -1000 
-1000 -1000 -1000 -1000 -1000 -1000 -1000 -1000 -1000 
-1000 -1000 -1000 -1000 -1000 -1000 -1000 -1000 -1000 
-1000 -1000 -1000 -1000 -1000 -1000 -1000 -1000 -1000 
-1000 -1000 -1000 -1000 -1000 -1000 -1000 -1000 -1000 
-1000 -1000 -1000 -1000 -1000 -1000 -1000 -1000 -1000 
-1000 -1000 -1000 -1000 -1000 -1000 -1000 -1000 -1000 
-1000 -1000 -1000 -1000 -1000 -1000 -1000 -1000 -1000 
-1000 -1000 -1000 -1000 -1000 -1000 -1000 -1000 -1000 
-1000 -1000 -1000 -1000 -1000 -1000 -1000 -1000 -1000 
-1000 -1000 -1000 -1000 -1000 -1000 -1000 -1000 -1000 
-1000 -1000 -1000 -1000 -1000 -1000 -1000 -1000 -1000 
-1000 -1000 -1000 -1000 -1000 -1000 -1000 -1000 -1000 
-1000 -1000 -1000 -1000 -1000 -1000 -1000 -1000 -1000 
-1000 -1000 -1000 -1000 -1000 -1000 -1000 -1000 -1000 
-1000 -1000 -1000 -1000 -1000 -1000 -1000 -1000 -1000 
-1000 -1000 -1000 -1000 -1000 -1000 -1000 -1000 -1000 
-1000 -1000 -1000 -1000 -1000 -1000 -1000 -1000 -1000 
-1000 -1000 -1000 -1000 -1000 -1000 -1000 -1000 -1000 
-1000 -1000 -1000 -1000 -1000 -1000 -1000 -1000 -1000 
-1000 -1000 -1000 -1000 -1000 -1000 -1000 -1000 -1000 
-1000 -1000 -1000 -1000 -1000 -1000 -1000 -1000 -1000 
-1000 -1000 -1000 -1000 -1000 -1000 -1000 -1000 -1000 
-1000 -1000 -1000 -1000 -1000 -1000 -1000 -1000 -1000 
-1000 -1000 -1000 -1000 -1000 -1000 -1000 -1000 -1000 
-1000 -1000 -1000 -1000 -1000 -1000 -1000 -1000 -1000 
-1000 -1000 -1000 -1000 -1000 -1000 -1000 -1000 -1000 
-1000 -1000 -1000 -1000 -1000 -1000 -1000 -1000 -1000 
-1000 -1000 -1000 -1000 -1000 -1000 -1000 -1000 -1000 
-1000 -1000 -1000 -1000 -1000 -1000 -1000 -1000 -1000 
-1000 -1000 -1000 -1000 -1000 -1000 -1000 -1000 -1000 
-1000 -1000 -1000 -1000 -1000 -1000 -1000 -1000 -1000 
-1000 -1000 -1000 -1000 -1000 -1000 -1000 -1000 -1000 
-1000 -1000 -1000 -1000 -1000 -1000 -1000 -1000 -1000 
-1000 -1000 -1000 -1000 -1000 -1000 -1000 -1000 -1000 
-1000 -1000 -1000 -1000 -1000 -1000 -1000 -1000 -1000 
-1000 -1000 -1000 -1000 -1000 -1000 -1000 -1000 -1000 
-1000 -1000 -1000 -1000 -1000 -1000 -1000 -1000 -1000 
-1000 -1000 -1000 -1000 -1000 -1000 -1000 -1000 -1000 
-1000 -1000 -1000 -1000 -1000 -1000 -1000 -1000 -1000 
-1000 -1000 -1000 -1000 -1000 -1000 -1000 -1000 -1000 
-1000 -1000 -1000 -1000 -1000 -1000 -1000 -1000 -1000 
-1000 -1000 -1000 -1000 -1000 -1000 -1000 -1000 -1000 
-1000 -1000 -1000 -1000 -1000 -1000 -1000 -1000 -1000 
-1000 -1000 -1000 -1000 -1000 -1000 -1000 -1000 -1000 
-1000 -1000 -1000 -1000 -1000 -1000 -1000 -1000 -1000 
-1000 -1000 -1000 -1000 -1000 -1000 -1000 -1000 -1000 
-1000 -1000 -1000 -1000 -1000 -1000 -1000 -1000 -1000 
-1000 -1000 -1000 -1000 -1000 -1000 -1000 -1000 -1000 
-1000 -1000 -1000 -1000 -1000 -1000 -1000 -1000 -1000 
-1000 -1000 -1000 -1000 -1000 -1000 -1000 -1000 -1000 
-1000 -1000 -1000 -1000 -1000 -1000 -1000 -1000 -1000 
-1000 -1000 -1000 -1000 -1000 -1000 -1000 -1000 -1000 
-1000 -1000 -1000 -1000 -1000 -1000 -1000 -1000 -1000 
-1000 -1000 -1000 -1000 -1000 -1000 -1000 -1000 -1000 
-1000 -1000 -1000 -1000 -1000 -1000 -1000 -1000 -1000 
-1000 -1000 -1000 -1000 -1000 -1000 -1000 -1000 -1000 
-1000 -1000 -1000 -1000 -1000 -1000 -1000 -1000 -1000 
-1000 -1000 -1000 -1000 -1000 -1000 -1000 -1000 -1000 
-1000 -1000 -1000 -1000 -1000 -1000 -1000 -1000 -1000 
-1000 -1000 -1000 -1000 -1000 -1000 -1000 -1000 -1000 
-1000 -1000 -1000 -1000 -1000 -1000 -1000 -1000 -1000 
-1000 -1000 -1000 -1000 -1000 -1000 -1000 -1000 -1000 
-1000 -1000 -1000 -1000 -1000 -1000 -1000 -1000 -1000 
-1000 -1000 -1000 -1000 -1000 -1000 -1000 -1000 -1000 
-1000 -1000 -1000 -1000 -1000 -1000 -1000 -1000 -1000 
-1000 -1000 -1000 -1000 -1000 -1000 -1000 -1000 -1000 
-1000 -1000 -1000 -1000 -1000 -1000 -1000 -1000 -1000 
-1000 -1000 -1000 -1000 -1000 -1000 -1000 -1000 -1000 
-1000 -1000 -1000 -1000 -1000 -1000 -1000 -1000 -1000 
-1000 -1000 -1000 -1000 -1000 -1000 -1000 -1000 -1000 
-1000 -1000 -1000 -1000 -1000 -1000 -1000 -1000 -1000 
-1000 -1000 -1000 -1000 -1000 -1000 -1000 -1000 -1000 
-1000 -1000 -1000 -1000 -1000 -1000 -1000 -1000 -1000 
-1000 -1000 -1000 -1000 -1000 -1000 -1000 -1000 -1000 
-1000 -1000 -1000 -1000 -1000 -1000 -1000 -1000 -1000 
-1000 -1000 -1000 -1000 -1000 -1000 -1000 -1000 -1000 
-1000 -1000 -1000 -1000 -1000 -1000 -1000 -1000 -1000 
-1000 -1000 -1000 -1000 -1000 -1000 -1000 -1000 -1000 
-1000 -1000 -1000 -1000 -1000 -1000 -1000 -1000 -1000 
-1000 -1000 -1000 -1000 -1000 -1000 -1000 -1000 -1000 
-1000 -1000 -1000 -1000 -1000 -1000 -1000 -1000 -1000 
-1000 -1000 -1000 -1000 -1000 -1000 -1000 -1000 -1000 
-1000 -1000 -1000 -1000 -1000 -1000 -1000 -1000 -1000 
-1000 -1000 -1000 -1000 -1000 -1000 -1000 -1000 -1000 
-1000 -1000 -1000 -1000 -1000 -1000 -1000 -1000 -1000 
-1000 -1000 -1000 -1000 -1000 -1000 -1000 -1000 -1000 
-1000 -1000 -1000 -1000 -1000 -1000 -1000 -1000 -1000 
-1000 -1000 -1000 -1000 -1000 -1000 -1000 -1000 -1000 
-1000 -1000 -1000 -1000 -1000 -1000 -1000 -1000 -1000 
-1000 -1000 -1000 -1000 -1000 -1000 -1000 -1000 -1000 
-1000 -1000 -1000 -1000 -1000 -1000 -1000 -1000 -1000 
-1000 -1000 -1000 -1000 -1000 -1000 -1000 -1000 -1000 
-1000 -1000 -1000 -1000 -1000 -1000 -1000 -1000 -1000 
-1000 -1000 -1000 -1000 -1000 -1000 -1000 -1000 -1000 
-1000 -1000 -1000 -1000 -1000 -1000 -1000 -1000 -1000 
-1000 -1000 -1000 -1000 -1000 -1000 -1000 -1000 -1000 
-1000 -1000 -1000 -1000 -1000 -1000 -1000 -1000 -1000 
-1000 -1000 -1000 -1000 -1000 -1000 -1000 -1000 -1000 
-1000 -1000 -1000 -1000 -1000 -1000 -1000 -1000 -1000 
-1000 -1000 -1000 -1000 -1000 -1000 -1000 -1000 -1000 
-1000 -1000 -1000 -1000 -1000 -1000 -1000 -1000 -1000 
-1000 -1000 -1000 -1000 -1000 -1000 -1000 -1000 -1000 
-1000 -1000 -1000 -1000 -1000 -1000 -1000 -1000 -1000 
-1000 -1000 -1000 -1000 -1000 -1000 -1000 -1000 -1000 
-1000 -1000 -1000 -1000 -1000 -1000 -1000 -1000 -1000 
-1000 -1000 -1000 -1000 -1000 -1000 -1000 -1000 -1000 
-1000 -1000 -1000 -1000 -1000 -1000 -1000 -1000 -1000 
-1000 -1000 -1000 -1000 -1000 -1000 -1000 -1000 -1000 
-1000 -1000 -1000 -1000 -1000 -1000 -1000 -1000 -1000 
-1000 -1000 -1000 -1000 -1000 -1000 -1000 -1000 -1000 
-1000 -1000 -1000 -1000 -1000 -1000 -1000 -1000 -1000 
-1000 -1000 -1000 -1000 -1000 -1000 -1000 -1000 -1000 
-1000 -1000 -1000 -1000 -1000 -1000 -1000 -1000 -1000 
-1000 -1000 -1000 -1000 -1000 -1000 -1000 -1000 -1000 
-1000 -1000 -1000 -1000 -1000 -1000 -1000 -1000 -1000 
-1000 -1000 -1000 -1000 -1000 -1000 -1000 -1000 -1000 
-1000 -1000 -1000 -1000 -1000 -1000 -1000 -1000 -1000 
-1000 -1000 -1000 -1000 -1000 -1000 -1000 -1000 -1000 
-1000 -1000 -1000 -1000 -1000 -1000 -1000 -1000 -1000 
-1000 -1000 -1000 -1000 -1000 -1000 -1000 -1000 -1000 
-1000 -1000 -1000 -1000 -1000 -1000 -1000 -1000 -1000 
-1000 -1000 -1000 -1000 -1000 -1000 -1000 -1000 -1000 
-1000 -1000 -1000 -1000 -1000 -1000 -1000 -1000 -1000 
-1000 -1000 -1000 -1000 -1000 -1000 -1000 -1000 -1000 
-1000 -1000 -1000 -1000 -1000 -1000 -1000 -1000 -1000 
-1000 -1000 -1000 -1000 -1000 -1000 -1000 -1000 -1000 
-1000 -1000 -1000 -1000 -1000 -1000 -1000 -1000 -1000 
-1000 -1000 -1000 -1000 -1000 -1000 -1000 -1000 -1000 
-1000 -1000 -1000 -1000 -1000 -1000 -1000 -1000 -1000 
-1000 -1000 -1000 -1000 -1000 -1000 -1000 -1000 -1000 
-1000 -1000 -1000 -1000 -1000 -1000 -1000 -1000 -1000 
-1000 -1000 -1000 -1000 -1000 -1000 -1000 -1000 -1000 
-1000 -1000 -1000 -1000 -1000 -1000 -1000 -1000 -1000 
-1000 -1000 -1000 -1000 -1000 -1000 -1000 -1000 -1000 
-1000 -1000 -1000 -1000 -1000 -1000 -1000 -1000 -1000 
-1000 -1000 -1000 -1000 -1000 -1000 -1000 -1000 -1000 
-1000 -1000 -1000 -1000 -1000 -1000 -1000 -1000 -1000 
-1000 -1000 -1000 -1000 -1000 -1000 -1000 -1000 -1000 
-1000 -1000 -1000 -1000 -1000 -1000 -1000 -1000 -1000 
-1000 -1000 -1000 -1000 -1000 -1000 -1000 -1000 -1000 