# vtk DataFile Version 3.0
vtk output
ASCII
DATASET POLYDATA
POINTS 17746 float
-86.7252 2.17159 -10.9 -85.9438 1.41481 -10.5908 -85.6651 1.94916 -10.634 
-87.7607 2.02515 -10.995 -86.8073 1.31987 -10.7125 -87.6975 1.39629 -10.8101 
-85.0065 3.20951 -10.6399 -84.1775 2.61832 -10.3505 -84.0568 3.43804 -10.3826 
-86.0628 2.89747 -10.8734 -84.9107 2.24407 -10.4961 -87.1965 3.11239 -11.1478 
-87.9974 2.91731 -11.207 -88.4465 1.89364 -10.9646 -89.0091 2.75256 -11.1602 
-90.0103 2.92683 -11.0622 -89.3311 2.14465 -10.9587 -90.2613 2.53656 -10.9038 
-85.0716 4.36618 -10.7427 -84.0087 4.28109 -10.4242 -86.1616 4.04259 -10.9891 
-87.2253 3.92799 -11.2023 -88.2184 3.86695 -11.3401 -89.2 3.80032 -11.3234 
-90.167 3.72881 -11.1597 -90.9903 3.50232 -10.875 -84.5323 5.37199 -10.6765 
-83.5101 4.68553 -10.2955 -83.4908 5.36929 -10.3663 -85.7069 5.44589 -10.9546 
-86.4793 5.14811 -11.085 -87.4559 4.95183 -11.2497 -88.4642 4.85379 -11.3561 
-89.2668 4.67444 -11.3693 -90.373 4.86954 -11.1441 -91.0589 4.44214 -10.917 
-84.0265 6.35886 -10.6375 -83.0645 5.81401 -10.2623 -83.1586 6.7294 -10.3562 
-85.08 6.52625 -10.9163 -85.86 6.32981 -11.0207 -86.8513 6.21816 -11.1471 
-87.8407 6.03086 -11.255 -88.6328 5.74923 -11.3268 -89.906 5.89525 -11.2117 
-91.1857 5.99567 -10.8037 -91.4993 5.30242 -10.6799 -84.1883 7.55002 -10.7537 
-83.3547 7.82237 -10.434 -85.1512 7.41068 -10.9808 -86.1109 7.32156 -11.1031 
-87.1111 7.25859 -11.1549 -88.2094 7.16738 -11.194 -89.3675 6.89258 -11.2037 
-90.5839 7.08122 -11.028 -91.1251 6.74389 -10.8573 -84.4397 8.64365 -10.8082 
-83.6845 8.91195 -10.4665 -85.3799 8.47488 -11.0367 -86.3896 8.3315 -11.1282 
-87.1915 8.11454 -11.1458 -88.428 8.37166 -11.057 -89.5474 8.09696 -11.0254 
-90.655 7.96367 -10.9212 -84.735 9.64126 -10.7658 -84.1674 9.93505 -10.4333 
-85.616 9.50792 -10.9951 -86.6696 9.38869 -11.0763 -87.8448 9.19232 -11.0174 
-89.0861 9.43037 -10.8182 -89.8603 9.13559 -10.7858 -90.6528 8.82528 -10.7801 
-85.0285 10.3854 -10.6306 -84.8742 10.7516 -10.3738 -85.8017 10.3973 -10.8011 
-86.8361 10.3591 -10.8918 -87.9265 10.254 -10.853 -89.0558 10.2093 -10.6895 
-85.8622 11.0871 -10.4867 -86.9774 11.1869 -10.5734 -88.0955 11.1368 -10.5862 
-88.9837 10.9513 -10.5483 -85.8196 -1.05454 -10.2153 -85.1433 -1.76641 -10.07 
-84.8263 -1.20901 -10.0767 -86.9256 -1.28091 -10.2921 -85.9556 -1.98638 -10.1297 
-87.9805 -1.37271 -10.3219 -86.9749 -2.14044 -10.1699 -88.967 -1.38136 -10.2925 
-88.0281 -2.1381 -10.1731 -88.9449 -1.95831 -10.1552 -83.8405 0.106762 -10.0477 
-83.2117 -0.49068 -9.91573 -82.9242 0.161413 -9.91666 -84.9912 -0.332991 -10.1844 
-84.0187 -0.883388 -9.99832 -86.1029 -0.141839 -10.3543 -87.0036 -0.347419 -10.4146 
-88.0738 -0.466557 -10.4642 -89.1603 -0.529754 -10.4789 -89.6461 -1.42826 -10.2228 
-90.2033 -0.645642 -10.4135 -90.3751 -1.15381 -10.2464 -83.0451 1.08148 -10.0029 
-82.3206 0.562667 -9.87467 -82.0878 1.224 -9.88891 -84.0646 0.928664 -10.1575 
-84.7016 0.494348 -10.2241 -85.7732 0.625046 -10.4148 -87.1218 0.627478 -10.572 
-88.2515 0.500382 -10.5953 -89.3966 0.474932 -10.6217 -90.5322 0.403881 -10.6246 
-91.104 -0.602147 -10.3656 -91.6848 0.282301 -10.5492 -92.7708 0.467999 -10.4197 
-92.0644 -0.321883 -10.3346 -93.1584 0.0721178 -10.1195 -82.2737 2.11143 -9.93069 
-81.4998 1.63472 -9.82588 -81.3191 2.27463 -9.7776 -83.0922 1.89289 -10.0577 
-83.8988 1.78842 -10.2043 -84.9595 1.30922 -10.3678 -88.4156 1.327 -10.7752 
-89.6591 1.56526 -10.766 -90.8107 1.50582 -10.7179 -91.9303 1.41235 -10.6709 
-92.9603 1.28687 -10.4927 -93.6695 1.00722 -10.1551 -81.6061 3.08717 -9.76432 
-80.7957 2.70429 -9.63066 -80.735 3.52034 -9.51421 -82.4804 3.07695 -9.95532 
-83.2677 2.65162 -10.1262 -91.0292 2.561 -10.7673 -92.1912 2.64252 -10.6185 
-93.172 2.344 -10.4679 -94.1537 2.16756 -10.0128 -81.5684 4.13777 -9.6835 
-80.7578 4.49552 -9.42662 -82.2565 3.77669 -9.88916 -83.1374 3.79299 -10.1267 
-91.9746 3.5699 -10.5925 -92.7585 3.66278 -10.4035 -93.3837 3.38694 -10.294 
-94.0921 3.11854 -10.0629 -81.5646 5.14886 -9.65945 -80.8328 5.32617 -9.41768 
-82.5893 4.81633 -10.0096 -91.9681 4.60192 -10.5155 -92.6637 4.31079 -10.3148 
-81.3832 6.20347 -9.62679 -80.4768 5.83414 -9.35377 -80.6097 6.73253 -9.41555 
-82.3222 5.94643 -9.97777 -91.9983 6.04856 -10.4009 -92.2891 5.55125 -10.2866 
-81.6145 7.42291 -9.70867 -80.8751 7.84556 -9.44613 -82.3732 7.04029 -10.0264 
-91.795 7.71942 -10.6653 -92.1492 6.84083 -10.4145 -81.9617 8.56761 -9.74002 
-81.2516 8.96974 -9.44435 -82.6422 8.17212 -10.0799 -91.9365 8.97394 -10.6163 
-92.9121 7.67381 -10.2732 -93.3024 8.64627 -10.3686 -94.4764 8.85873 -10.129 
-94.1995 7.98642 -9.86414 -95.0671 8.72967 -9.83571 -82.4596 9.7285 -9.73571 
-81.7023 10.1024 -9.4257 -83.1003 9.31174 -10.094 -90.1573 10.1182 -10.5524 
-91.2901 9.83772 -10.536 -92.5564 10.0405 -10.4693 -93.4196 9.77629 -10.431 
-94.4528 9.60855 -10.2587 -95.2896 9.43654 -9.96002 -83.01 10.9005 -9.691 
-82.1807 11.2319 -9.39464 -83.9273 10.5889 -10.0622 -90.2419 11.1522 -10.3525 
-91.4282 10.939 -10.3278 -92.5677 10.8661 -10.3499 -93.6708 10.8087 -10.3485 
-94.6503 10.6108 -10.25 -95.5003 10.3498 -10.0079 -83.4956 12.0194 -9.62109 
-82.6751 12.3153 -9.34785 -84.4967 11.8162 -9.89128 -85.6521 11.6935 -10.1464 
-87.1071 11.9443 -10.2456 -88.3322 11.9773 -10.2774 -89.5776 11.8576 -10.2611 
-90.8435 12.1037 -10.1344 -91.6652 11.9263 -10.1555 -92.7156 11.8436 -10.1996 
-93.8268 11.8129 -10.2426 -95.0364 11.7628 -10.175 -95.7433 11.3089 -10.0059 
-83.8768 13.0079 -9.53352 -83.1669 13.1473 -9.30674 -84.9193 12.9129 -9.78436 
-86.0957 12.8109 -9.9471 -87.3363 12.8033 -10.0212 -88.5625 12.8366 -10.045 
-89.7245 12.8213 -10.0447 -90.8548 12.832 -10.0191 -91.8935 12.8376 -10.0114 
-92.888 12.8045 -10.0582 -93.9366 12.7983 -10.1294 -95.0377 12.8004 -10.1424 
-96.0712 12.0788 -9.97809 -96.1652 12.8195 -9.9843 -96.6585 12.4999 -9.80482 
-83.9876 13.6882 -9.41554 -84.4676 14.459 -9.42412 -85.1635 13.9846 -9.66963 
-86.4439 13.8555 -9.86358 -87.6617 13.7767 -9.91213 -88.8349 13.7433 -9.9089 
-89.949 13.7268 -9.89849 -91.0146 13.7182 -9.88979 -92.0415 13.7232 -9.89317 
-93.0418 13.7345 -9.9313 -94.0483 13.7524 -10.0059 -95.0812 13.7655 -10.0588 
-96.1107 13.7393 -9.96924 -96.9949 13.0053 -9.67385 -97.0105 13.6379 -9.65163 
-97.5976 13.3109 -9.14667 -85.7234 15.0908 -9.65439 -84.9195 15.3822 -9.42734 
-86.764 14.8812 -9.82175 -87.9485 14.7574 -9.86545 -89.0984 14.6815 -9.83786 
-90.1806 14.64 -9.80511 -91.2057 14.6231 -9.78854 -92.1963 14.6271 -9.79273 
-93.1716 14.6505 -9.82752 -94.1512 14.6857 -9.8951 -95.1461 14.7099 -9.95171 
-96.14 14.6722 -9.88158 -97.0578 14.5017 -9.55803 -97.7673 14.1322 -8.98869 
-86.0273 15.9839 -9.60544 -85.3352 16.1154 -9.4243 -87.0357 15.8726 -9.77744 
-88.1819 15.7276 -9.83155 -89.3148 15.6216 -9.79577 -90.3789 15.5579 -9.7456 
-91.3783 15.5309 -9.71813 -92.3384 15.5345 -9.72054 -93.2847 15.5636 -9.75516 
-94.2361 15.6103 -9.81836 -95.2045 15.6491 -9.86877 -96.1813 15.62 -9.79339 
-97.1076 15.433 -9.4468 -97.8803 15.011 -8.79308 -86.0546 16.6046 -9.51481 
-86.3479 17.3593 -9.51142 -87.1222 16.8896 -9.68492 -88.3516 16.7012 -9.78316 
-89.4803 16.5643 -9.76167 -90.5321 16.4807 -9.7092 -91.5152 16.4432 -9.67769 
-92.4527 16.4454 -9.6804 -93.373 16.4798 -9.71677 -94.2954 16.5323 -9.77954 
-95.2347 16.5855 -9.82817 -96.1982 16.5851 -9.75253 -97.1405 16.4157 -9.39184 
-97.954 15.9768 -8.67161 -87.4373 18.1229 -9.67807 -86.4562 18.17 -9.53511 
-88.5114 17.7241 -9.74507 -89.6037 17.5289 -9.73565 -90.6408 17.4219 -9.69322 
-91.612 17.3722 -9.6666 -92.5324 17.3658 -9.67198 -93.428 17.4002 -9.70522 
-94.3272 17.4576 -9.75847 -95.2208 17.496 -9.8079 -96.1435 17.5397 -9.75177 
-97.1186 17.46 -9.41825 -98.0061 17.0448 -8.6717 -86.9212 19.0754 -9.66296 
-85.9776 18.6366 -9.50984 -85.9793 19.5012 -9.58149 -87.9287 19.095 -9.7555 
-88.701 18.7535 -9.75449 -89.6983 18.5226 -9.73128 -90.7044 18.394 -9.69586 
-91.6669 18.3315 -9.67698 -92.5819 18.3086 -9.68338 -93.4435 18.3064 -9.70677 
-94.3098 18.375 -9.72521 -95.2122 18.4206 -9.74265 -95.9675 18.3003 -9.74186 
-96.9244 18.5604 -9.49264 -98.0239 18.2779 -8.83045 -86.886 20.1713 -9.70619 
-86.0695 20.5204 -9.61309 -87.8229 19.9342 -9.77212 -88.7828 19.7282 -9.78072 
-89.7377 19.5221 -9.7423 -90.7134 19.3905 -9.69669 -91.6708 19.3178 -9.67478 
-92.593 19.28 -9.67836 -93.4741 19.2389 -9.68066 -94.1823 19.1194 -9.68377 
-95.1163 19.4442 -9.58932 -96.1788 19.2589 -9.55854 -97.0835 19.5053 -9.37003 
-97.6877 19.2192 -9.1577 -86.8858 21.1024 -9.68317 -86.2729 21.3107 -9.59687 
-87.7582 20.9163 -9.74865 -88.7382 20.6959 -9.7634 -89.697 20.4862 -9.73046 
-90.6412 20.3685 -9.65537 -91.6016 20.3084 -9.5929 -92.5389 20.2461 -9.58585 
-93.4531 20.2008 -9.57763 -94.4272 20.1051 -9.51982 -95.3233 20.4016 -9.34672 
-96.0337 20.224 -9.33927 -96.7854 20.0643 -9.30957 -86.8184 21.7634 -9.60199 
-87.1195 22.4397 -9.47024 -87.6469 21.893 -9.6187 -88.6632 21.6599 -9.64506 
-89.6541 21.4225 -9.61244 -90.4483 21.1522 -9.57691 -91.4158 21.3266 -9.36961 
-92.4236 21.1596 -9.34024 -93.3292 21.0973 -9.34856 -94.202 21.0467 -9.31891 
-95.0597 21.0869 -9.21355 -87.8479 22.675 -9.41588 -87.5835 23.1047 -9.27392 
-88.5866 22.533 -9.41358 -89.5786 22.3315 -9.36087 -90.6505 22.0351 -9.26846 
-91.5825 22.1808 -9.00647 -92.3226 22.0083 -8.98967 -93.1974 21.915 -9.01727 
-94.0606 21.8725 -9.05777 -94.7766 21.7582 -9.07137 -88.4162 23.2639 -9.17474 
-89.4112 23.1742 -9.08057 -90.4299 22.9605 -8.98042 -91.2505 22.7195 -8.88131 
-87.1784 -5.39279 -10.1528 -86.6396 -6.07828 -9.9374 -86.2366 -5.5798 -9.99225 
-88.2577 -5.57011 -10.2271 -87.489 -6.21733 -9.99181 -89.1857 -5.66804 -10.2109 
-88.4825 -6.27671 -10.0257 -89.2533 -6.21432 -10.0264 -47.0978 0.0868135 -14.04 
-46.4591 -0.680517 -13.6662 -46.1474 -0.018895 -13.9288 -48.1533 -0.307863 -13.9074 
-47.2547 -1.00536 -13.5637 -49.1737 -0.600805 -13.783 -48.2447 -1.33861 -13.4296 
[...]
POINT_DATA 17746
SCALARS scalars float
LOOKUP_TABLE default
-1000 -1000 -1000 -1000 -1000 -1000 -1000 -1000 -1000 
-1000 -1000 -1000 -1000 -1000 -1000 -1000 -1000 -1000 
-1000 -1000 -1000 -1000 -1000 -1000 -1000 -1000 -1000 
-1000 -1000 -1000 -1000 -1000 -1000 -1000 -1000 -1000 
-1000 -1000 -1000 -1000 -1000 -1000 -1000 -1000 -1000 
-1000 -1000 -1000 -1000 -1000 -1000 -1000 -1000 -1000 
-1000 -1000 -1000 -1000 -1000 -1000 -1000 -1000 -1000 
-1000 -1000 -1000 -1000 -1000 -1000 -1000 -1000 -1000 
-1000 -1000 -1000 -1000 -1000 -1000 -1000 -1000 -1000 
-1000 -1000 -1000 -1000 -1000 -1000 -1000 -1000 -1000 
-1000 -1000 -1000 -1000 -1000 -1000 -1000 -1000 -1000 
-1000 -1000 -1000 -1000 -1000 -1000 -1000 -1000 -1000 
-1000 -1000 -1000 -1000 -1000 -1000 -1000 -1000 -1000 
-1000 -1000 -1000 -1000 -1000 -1000 -1000 -1000 -1000 
-1000 -1000 -1000 -1000 -1000 -1000 -1000 -1000 -1000 
-1000 -1000 -1000 -1000 -1000 -1000 -1000 -1000 -1000 
-1000 -1000 -1000 -1000 -1000 -1000 -1000 -1000 -1000 
-1000 -1000 -1000 -1000 -1000 -1000 -1000 -1000 -1000 
-1000 -1000 -1000 -1000 -1000 -1000 -1000 -1000 -1000 
-1000 -1000 -1000 -1000 -1000 -1000 -1000 -1000 -1000 
-1000 -1000 -1000 -1000 -1000 -1000 -1000 -1000 -1000 
-1000 -1000 -1000 -1000 -1000 -1000 -1000 -1000 -1000 
-1000 -1000 -1000 -1000 -1000 -1000 -1000 -1000 -1000 
-1000 -1000 -1000 -1000 -1000 -1000 -1000 -1000 -1000 
-1000 -1000 -1000 -1000 -1000 -1000 -1000 -1000 -1000 
-1000 -1000 -1000 -1000 -1000 -1000 -1000 -1000 -1000 
-1000 -1000 -1000 -1000 -1000 -1000 -1000 -1000 -1000 
-1000 -1000 -1000 -1000 -1000 -1000 -1000 -1000 -1000 
-1000 -1000 -1000 -1000 -1000 -1000 -1000 -1000 -1000 
-1000 -1000 -1000 -1000 -1000 -1000 -1000 -1000 -1000 
-1000 -1000 -1000 -1000 -1000 -1000 -1000 -1000 -1000 
-1000 -1000 -1000 -1000 -1000 -1000 -1000 -1000 -1000 
-1000 -1000 -1000 -1000 -1000 -1000 -1000 -1000 -1000 
-1000 -1000 -1000 -1000 -1000 -1000 -1000 -1000 -1000 
-1000 -1000 -1000 -1000 -1000 -1000 -1000 -1000 -1000 
-1000 -1000 -1000 -1000 -1000 -1000 -1000 -1000 -1000 
-1000 -1000 -1000 -1000 -1000 -1000 -1000 -1000 -1000 
-1000 -1000 -1000 -1000 -1000 -1000 -1000 -1000 -1000 
-1000 -1000 -1000 -1000 -1000 -1000 -1000 -1000 -1000 
-1000 -1000 -1000 -1000 -1000 -1000 -1000 -1000 -1000 
-1000 -1000 -1000 -1000 -1000 -1000 -1000 -1000 -1000 
-1000 -1000 -1000 -1000 -1000 -1000 -1000 -1000 -1000 
-1000 -1000 -1000 -1000 -1000 -1000 -1000 -1000 -1000 
-1000 -1000 -1000 -1000 -1000 -1000 -1000 -1000 -1000 
-1000 -1000 -1000 -1000 -1000 -1000 -1000 -1000 -1000 
-1000 -1000 -1000 -1000 -1000 -1000 -1000 -1000 -1000 
-1000 -1000 -1000 -1000 -1000 -1000 -1000 -1000 -1000 
-1000 -1000 -1000 -1000 -1000 -1000 -1000 -1000 -1000 
-1000 -1000 -1000 -1000 -1000 -1000 -1000 -1000 -1000 
-1000 -1000 -1000 -1000 -1000 -1000 -1000 -1000 -1000 
-1000 -1000 -1000 -1000 -1000 -1000 -1000 -1000 -1000 
-1000 -1000 -1000 -1000 -1000 -1000 -1000 -1000 -1000 
-1000 -1000 -1000 -1000 -1000 -1000 -1000 -1000 -1000 
-1000 -1000 -1000 -1000 -1000 -1000 -1000 -1000 -1000 
-1000 -1000 -1000 -1000 -1000 -1000 -1000 -1000 -1000 
-1000 -1000 -1000 -1000 -1000 -1000 -1000 -1000 -1000 
-1000 -1000 -1000 -1000 -1000 -1000 -1000 -1000 -1000 
-1000 -1000 -1000 -1000 -1000 -1000 -1000 -1000 -1000 
-1000 -1000 -1000 -1000 -1000 -1000 -1000 -1000 -1000 
-1000 -1000 -1000 -1000 -1000 -1000 -1000 -1000 -1000 
-1000 -1000 -1000 -1000 -1000 -1000 -1000 -1000 -1000 
-1000 -1000 -1000 -1000 -1000 -1000 -1000 -1000 -1000 
-1000 -1000 -1000 -1000 -1000 -1000 -1000 -1000 -1000 
-1000 -1000 -1000 -1000 -1000 -1000 -1000 -1000 -1000 
-1000 -1000 -1000 -1000 -1000 -1000 -1000 -1000 -1000 
-1000 -1000 -1000 -1000 -1000 -1000 -1000 -1000 -1000 
-1000 -1000 -1000 -1000 -1000 -1000 -1000 -1000 -1000 
-1000 -1000 -1000 -1000 -1000 -1000 -1000 -1000 -1000 
-1000 -1000 -1000 -1000 -1000 -1000 -1000 -1000 -1000 
-1000 -1000 -1000 -1000 -1000 -1000 -1000 -1000 -1000 
-1000 -1000 -1000 -1000 -1000 -1000 -1000 -1000 -1000 
-1000 -1000 -1000 -1000 -1000 -1000 -1000 -1000 -1000 
-1000 -1000 -1000 -1000 -1000 -1000 -1000 -1000 -1000 
-1000 -1000 -1000 -1000 -1000 -1000 -1000 -1000 -1000 
-1000 -1000 -1000 -1000 -1000 -1000 -1000 -1000 -1000 
-1000 -1000 -1000 -1000 -1000 -1000 -1000 -1000 -1000 
-1000 -1000 -1000 -1000 -1000 -1000 -1000 -1000 -1000 
-1000 -1000 -1000 -1000 -1000 -1000 -1000 -1000 -1000 
-1000 -1000 -1000 -1000 -1000 -1000 -1000 -1000 -1000 
-1000 -1000 -1000 -1000 -1000 -1000 -1000 -1000 -1000 
-1000 -1000 -1000 -1000 -1000 -1000 -1000 -1000 -1000 
-1000 -1000 -1000 -1000 -1000 -1000 -1000 -1000 -1000 
-1000 -1000 -1000 -1000 -1000 -1000 -1000 -1000 -1000 
-1000 -1000 -1000 -1000 -1000 -1000 -1000 -1000 -1000 
-1000 -1000 -1000 -1000 -1000 -1000 -1000 -1000 -1000 
-1000 -1000 -1000 -1000 -1000 -1000 -1000 -1000 -1000 
-1000 -1000 -1000 -1000 -1000 -1000 -1000 -1000 -1000 
-1000 -1000 -1000 -1000 -1000 -1000 -1000 -1000 -1000 
-1000 -1000 -1000 -1000 -1000 -1000 -1000 -1000 -1000 
-1000 -1000 -1000 -1000 -1000 -1000 -1000 -1000 -1000 
-1000 -1000 -1000 -1000 -1000 -1000 -1000 -1000 -1000 
-1000 -1000 -1000 -1000 -1000 -1000 -1000 -1000 -1000 
-1000 -1000 -1000 -1000 -1000 -1000 -1000 -1000 -1000 
-1000 -1000 -1000 -1000 -1000 -1000 -1000 -1000 -1000 
-1000 -1000 -1000 -1000 -1000 -1000 -1000 -1000 -1000 
-1000 -1000 -1000 -1000 -1000 -1000 -1000 -1000 -1000 
-1000 -1000 -1000 -1000 -1000 -1000 -1000 -1000 -1000 
-1000 -1000 -1000 -1000 -1000 -1000 -1000 -1000 -1000 
-1000 -1000 -1000 -1000 -1000 -1000 -1000 -1000 -1000 
-1000 -1000 -1000 -1000 -1000 -1000 -1000 -1000 -1000 
-1000 -1000 -1000 -1000 -1000 -1000 -1000 -1000 -1000 
-1000 -1000 -1000 -1000 -1000 -1000 -1000 -1000 -1000 
-1000 -1000 -1000 -1000 -1000 -1000 -1000 -1000 -1000 
-1000 -1000 -1000 -1000 -1000 -1000 -1000 -1000 -1000 
-1000 -1000 -1000 -1000 -1000 -1000 -1000 -1000 -1000 
-1000 -1000 -1000 -1000 -1000 -1000 -1000 -1000 -1000 
-1000 -1000 -1000 -1000 -1000 -1000 -1000 -1000 -1000 
-1000 -1000 -1000 -1000 -1000 -1000 -1000 -1000 -1000 
-1000 -1000 -1000 -1000 -1000 -1000 -1000 -1000 -1000 
-1000 -1000 -1000 -1000 -1000 -1000 -1000 -1000 -1000 
-1000 -1000 -1000 -1000 -1000 -1000 -1000 -1000 -1000 
-1000 -1000 -1000 -1000 -1000 -1000 -1000 -1000 -1000 
-1000 -1000 -1000 -1000 -1000 -1000 -1000 -1000 -1000 
-1000 -1000 -1000 -1000 -1000 -1000 -1000 -1000 -1000 
-1000 -1000 -1000 -1000 -1000 -1000 -1000 -1000 -1000 
-1000 -1000 -1000 -1000 -1000 -1000 -1000 -1000 -1000 
-1000 -1000 -1000 -1000 -1000 -1000 -1000 -1000 -1000 
-1000 -1000 -1000 -1000 -1000 -1000 -1000 -1000 -1000 
-1000 -1000 -1000 -1000 -1000 -1000 -1000 -1000 -1000 
-1000 -1000 -1000 -1000 -1000 -1000 -1000 -1000 -1000 
-1000 -1000 -1000 -1000 -1000 -1000 -1000 -1000 -1000 
-1000 -1000 -1000 -1000 -1000 -1000 -1000 -1000 -1000 
-1000 -1000 -1000 -1000 -1000 -1000 -1000 -1000 -1000 
-1000 -1000 -1000 -1000 -1000 -1000 -1000 -1000 -1000 
-1000 -1000 -1000 -1000 -1000 -1000 -1000 -1000 -1000 
-1000 -1000 -1000 -1000 -1000 -1000 -1000 -1000 -1000 
-1000 -1000 -1000 -1000 -1000 -1000 -1000 -1000 -1000 
-1000 -1000 -1000 -1000 -1000 -1000 -1000 -1000 -1000 
-1000 -1000 -1000 -1000 -1000 -1000 -1000 -1000 -1000 
-1000 -1000 -1000 -1000 -1000 -1000 -1000 -1000 -1000 
-1000 -1000 -1000 -1000 -1000 -1000 -1000 -1000 -1000 
-1000 -1000 -1000 -1000 -1000 -1000 -1000 -1000 -1000 
-1000 -1000 -1000 -1000 -1000 -1000 -1000 -1000 -1000 
-1000 -1000 -1000 -1000 -1000 -1000 -1000 -1000 -1000 
-1000 -1000 -1000 -1000 -1000 -1000 -1000 -1000 -1000 
-1000 -1000 -1000 -1000 -1000 -1000 -1000 -1000 -1000 
-1000 -1000 -1000 -1000 -1000 -1000 -1000 -1000 -1000 
-1000 -1000 -1000 -1000 -1000 -1000 -1000 -1000 -1000 
-1000 -1000 -1000 -1000 -1000 -1000 -1000 -1000 -1000 
-1000 -1000 -1000 -1000 -1000 -1000 -1000 -1000 -1000 
-1000 -1000 -1000 -1000 -1000 -1000 -1000 -1000 -1000 
-1000 -1000 -1000 -1000 -1000 -1000 -1000 -1000 -1000 
-1000 -1000 -1000 -1000 -1000 -1000 -1000 -1000 -1000 
-1000 -1000 -1000 -1000 -1000 -1000 -1000 -1000 -1000 
-1000 -1000 -1000 -1000 -1000 -1000 -1000 -1000 -1000 
-1000 -1000 -1000 -1000 -1000 -1000 -1000 -1000 -1000 
-1000 -1000 -1000 -1000 -1000 -1000 -1000 -1000 -1000 
-1000 -1000 -1000 -1000 -1000 -1000 -1000 -1000 -1000 
-1000 -1000 -1000 -1000 -1000 -1000 -1000 -1000 -1000 
-1000 -1000 -1000 -1000 -1000 -1000 -1000 -1000 -1000 
-1000 -1000 -1000 -1000 -1000 -1000 -1000 -1000 -1000 
-1000 -1000 -1000 -1000 -1000 -1000 -1000 -1000 -1000 
-1000 -1000 -1000 -1000 -1000 -1000 -1000 -1000 -1000 
-1000 -1000 -1000 -1000 -1000 -1000 -1000 -1000 -1000 
-1000 -1000 -1000 -1000 -1000 -1000 -1000 -1000 -1000 
-1000 -1000 -1000 -1000 -1000 -1000 -1000 -1000 -1000 
-1000 -1000 -1000 -1000 -1000 -1000 -1000 -1000 -1000 
-1000 -1000 -1000 -1000 -1000 -1000 -1000 -1000 -1000 
-1000 -1000 -1000 -1000 -1000 -1000 -1000 -1000 -1000 
-1000 -1000 -1000 -1000 -1000 -1000 -1000 -1000 -1000 
-1000 -1000 -1000 -1000 -1000 -1000 -1000 -1000 -1000 
-1000 -1000 -1000 -1000 -1000 -1000 -1000 -1000 -1000 
-1000 -1000 -1000 -1000 -1000 -1000 -1000 -1000 -1000 
-1000 -1000 -1000 -1000 -1000 -1000 -1000 -1000 -1000 
-1000 -1000 -1000 -1000 -1000 -1000 -1000 -1000 -1000 
-1000 -1000 -1000 -1000 -1000 -1000 -1000 -1000 -1000 
-1000 -1000 -1000 -1000 -1000 -1000 -1000 -1000 -1000 
-1000 -1000 -1000 -1000 -1000 -1000 -1000 -1000 -1000 
-1000 -1000 -1000 -1000 -1000 -1000 -1000 -1000 -1000 
-1000 -1000 -1000 -1000 -1000 -1000 -1000 -1000 -1000 
-1000 -1000 -1000 -1000 -1000 -1000 -1000 -1000 -1000 
-1000 -1000 -1000 -1000 -1000 -1000 -1000 -1000 -1000 
-1000 -1000 -1000 -1000 -1000 -1000 -1000 -1000 -1000 
-1000 -1000 -1000 -1000 -1000 -1000 -1000 -1000 -1000 
-1000 -1000 -1000 -1000 -1000 -1000 -1000 -1000 -1000 
-1000 -1000 -1000 -1000 -1000 -1000 -1000 -1000 -1000 
-1000 -1000 -1000 -1000 -1000 -1000 -1000 -1000 -1000 
-1000 -1000 -1000 -1000 -1000 -1000 -1000 -1000 -1000 
-1000 -1000 -1000 -1000 -1000 -1000 -1000 -1000 -1000 
-1000 -1000 -1000 -1000 -1000 -1000 -1000 -1000 -1000 
-1000 -1000 -1000 -1000 -1000 -1000 -1000 -1000 -1000 
-1000 -1000 -1000 -1000 -1000 -1000 -1000 -1000 -1000 
-1000 -1000 -1000 -1000 -1000 -1000 -1000 -1000 -1000 
-1000 -1000 -1000 -1000 -1000 -1000 -1000 -1000 -1000 
-1000 -1000 -1000 -1000 -1000 -1000 -1000 -1000 -1000 
-1000 -1000 -1000 -1000 -1000 -1000 -1000 -1000 -1000 
-1000 -1000 -1000 -1000 -1000 -1000 -1000 -1000 -1000 
-1000 -1000 -1000 -1000 -1000 -1000 -1000 -1000 -1000 
-1000 -1000 -1000 -1000 -1000 -1000 -1000 -1000 -1000 
-1000 -1000 -1000 -1000 -1000 -1000 -1000 -1000 -1000 
-1000 -1000 -1000 -1000 -1000 -1000 -1000 -1000 -1000 
-1000 -1000 -1000 -1000 -1000 -1000 -1000 -1000 -1000 
-1000 -1000 -1000 -1000 -1000 -1000 -1000 -1000 -1000 
-1000 -1000 -1000 -1000 -1000 -1000 -1000 -1000 -1000 
-1000 -1000 -1000 -1000 -1000 -1000 -1000 -1000 -1000 
-1000 -1000 -1000 -1000 -1000 -1000 -1000 -1000 -1000 
-1000 -1000 -1000 -1000 -1000 -1000 -1000 -1000 -1000 
-1000 -1000 -1000 -1000 -1000 -1000 -1000 -1000 -1000 
-1000 -1000 -1000 -1000 -1000 -1000 -1000 -1000 -1000 
-1000 -1000 -1000 -1000 -1000 -1000 -1000 -1000 -1000 
-1000 -1000 -1000 -1000 -1000 -1000 -1000 -1000 -1000 
-1000 -1000 -1000 -1000 -1000 -1000 -1000 -1000 -1000 
-1000 -1000 -1000 -1000 -1000 -1000 -1000 -1000 -1000 
-1000 -1000 -1000 -1000 -1000 -1000 -1000 -1000 -1000 
-1000 -1000 -1000 -1000 -1000 -1000 -1000 -1000 -1000 
-1000 -1000 -1000 -1000 -1000 -1000 -1000 -1000 -1000 
-1000 -1000 -1000 -1000 -1000 -1000 -1000 -1000 -1000 
-1000 -1000 -1000 -1000 -1000 -1000 -1000 -1000 -1000 
-1000 -1000 -1000 -1000 -1000 -1000 -1000 -1000 -1000 
-1000 -1000 -1000 -1000 -1000 -1000 -1000 -1000 -1000 
-1000 -1000 -1000 -1000 -1000 -1000 -1000 -1000 -1000 
-1000 -1000 -1000 -1000 -1000 -1000 -1000 -1000 -1000 
-1000 -1000 -1000 -1000 -1000 -1000 -1000 -1000 -1000 
-1000 -1000 -1000 -1000 -1000 -1000 -1000 -1000 -1000 
-1000 -1000 -1000 -1000 -1000 -1000 -1000 -1000 -1000 
-1000 -1000 -1000 -1000 -1000 -1000 -1000 -1000 -1000 
-1000 -1000 -1000 -1000 -1000 -1000 -1000 -1000 -1000 
-1000 -1000 -1000 -1000 -1000 -1000 -1000 -1000 -1000 
-1000 -1000 -1000 -1000 -1000 -1000 -1000 -1000 -1000 
-1000 -1000 -1000 -1000 -1000 -1000 -1000 -1000 -1000 
-1000 -1000 -1000 -1000 -1000 -1000 -1000 -1000 -1000 
-1000 -1000 -1000 -1000 -1000 -1000 -1000 -1000 -1000 
-1000 -1000 -1000 -1000 -1000 -1000 -1000 -1000 -1000 
-1000 -1000 -1000 -1000 -1000 -1000 -1000 -1000 -1000 
-1000 -1000 -1000 -1000 -1000 -1000 -1000 -1000 -1000 
-1000 -1000 -1000 -1000 -1000 -1000 -1000 -1000 -1000 
-1000 -1000 -1000 -1000 -1000 -1000 -1000 -1000 -1000 
-1000 -1000 -1000 -1000 -1000 -1000 -1000 -1000 -1000 
-1000 -1000 -1000 -1000 -1000 -1000 -1000 -1000 -1000 
-1000 -1000 -1000 -1000 -1000 -1000 -1000 -1000 -1000 
-1000 -1000 -1000 -1000 -1000 -1000 -1000 -1000 -1000 
-1000 -1000 -1000 -1000 -1000 -1000 -1000 -1000 -1000 
-1000 -1000 -1000 -1000 -1000 -1000 -1000 -1000 -1000 
-1000 -1000 -1000 -1000 -1000 -1000 -1000 -1000 -1000 
-1000 -1000 -1000 -1000 -1000 -1000 -1000 -1000 -1000 
-1000 -1000 -1000 -1000 -1000 -1000 -1000 -1000 -1000 
-1000 -1000 -1000 -1000 -1000 -1000 -1000 -1000 -1000 
-1000 -1000 -1000 -1000 -1000 -1000 -1000 -1000 -1000 
-1000 -1000 -1000 -1000 -1000 -1000 -1000 -1000 -1000 
-1000 -1000 -1000 -1000 -1000 -1000 -1000 -1000 -1000 
-1000 -1000 -1000 -1000 -1000 -1000 -1000 -1000 -1000 
-1000 -1000 -1000 -1000 -1000 -1000 -1000 -1000 -1000 
-1000 -1000 -1000 -1000 -1000 -1000 -1000 -1000 -1000 
-1000 -1000 -1000 -1000 -1000 -1000 -1000 -1000 -1000 
-1000 -1000 -1000 -1000 -1000 -1000 -1000 -1000 -1000 
-1000 -1000 -1000 -1000 -1000 -1000 -1000 -1000 -1000 
-1000 -1000 -1000 -1000 -1000 -1000 -1000 -1000 -1000 
-1000 -1000 -1000 -1000 -1000 -1000 -1000 -1000 -1000 
-1000 -1000 -1000 -1000 -1000 -1000 -1000 -1000 -1000 
-1000 -1000 -1000 -1000 -1000 -1000 -1000 -1000 -1000 
-1000 -1000 -1000 -1000 -1000 -1000 -1000 -1000 -1000 
-1000 -1000 -1000 -1000 -1000 -1000 -1000 -1000 -1000 
-1000 -1000 -1000 -1000 -1000 -1000 -1000 -1000 -1000 
-1000 -1000 -1000 -1000 -1000 -1000 -1000 -1000 -1000 
-1000 -1000 -1000 -1000 -1000 -1000 -1000 -1000 -1000 
-1000 -1000 -1000 -1000 -1000 -1000 -1000 -1000 -1000 
-1000 -1000 -1000 -1000 -1000 -1000 -1000 -1000 -1000 
-1000 -1000 -1000 -1000 -1000 -1000 -1000 -1000 -1000 
-1000 -1000 -1000 -1000 -1000 -1000 -1000 -1000 -1000 
-1000 -1000 -1000 -1000 -1000 -1000 -1000 -1000 -1000 
-1000 -1000 -1000 -1000 -1000 -1000 -1000 -1000 -1000 
-1000 -1000 -1000 -1000 -1000 -1000 -1000 -1000 -1000 
-1000 -1000 -1000 -1000 -1000 -1000 -1000 -1000 -1000 
-1000 -1000 -1000 -1000 -1000 -1000 -1000 -1000 -1000 
-1000 -1000 -1000 -1000 -1000 -1000 -1000 -1000 -1000 
-1000 -1000 -1000 -1000 -1000 -1000 -1000 -1000 -1000 
-1000 -1000 -1000 -1000 -1000 -1000 -1000 -1000 -1000 
-1000 -1000 -1000 -1000 -1000 -1000 -1000 -1000 -1000 
-1000 -1000 -1000 -1000 -1000 -1000 -1000 -1000 -1000 
-1000 -1000 -1000 -1000 -1000 -1000 -1000 -1000 -1000 
-1000 -1000 -1000 -1000 -1000 -1000 -1000 -1000 -1000 
-1000 -1000 -1000 -1000 -1000 -1000 -1000 -1000 -1000 
-1000 -1000 -1000 -1000 -1000 -1000 -1000 -1000 -1000 
-1000 -1000 -1000 -1000 -1000 -1000 -1000 -1000 -1000 
-1000 -1000 -1000 -1000 -1000 -1000 -1000 -1000 -1000 
-1000 -1000 -1000 -1000 -1000 -1000 -1000 -1000 -1000 
-1000 -1000 -1000 -1000 -1000 -1000 -1000 -1000 -1000 
-1000 -1000 -1000 -1000 -1000 -1000 -1000 -1000 -1000 
-1000 -1000 -1000 -1000 -1000 -1000 -1000 -1000 -1000 
-1000 -1000 -1000 -1000 -1000 -1000 -1000 -1000 -1000 
-1000 -1000 -1000 -1000 -1000 -1000 -1000 -1000 -1000 
-1000 -1000 -1000 -1000 -1000 -1000 -1000 -1000 -1000 
-1000 -1000 -1000 -1000 -1000 -1000 -1000 -1000 -1000 
-1000 -1000 -1000 -1000 -1000 -1000 -1000 -1000 -1000 
-1000 -1000 -1000 -1000 -1000 -1000 -1000 -1000 -1000 
-1000 -1000 -1000 -1000 -1000 -1000 -1000 -1000 -1000 
-1000 -1000 -1000 -1000 -1000 -1000 -1000 -1000 -1000 
-1000 -1000 -1000 -1000 -1000 -1000 -1000 -1000 -1000 
-1000 -1000 -1000 -1000 -1000 -1000 -1000 -1000 -1000 
-1000 -1000 -1000 -1000 -1000 -1000 -1000 -1000 -1000 
-1000 -1000 -1000 -1000 -1000 -1000 -1000 -1000 -1000 
-1000 -1000 -1000 -1000 -1000 -1000 -1000 -1000 -1000 
-1000 -1000 -1000 -1000 -1000 -1000 -1000 -1000 -1000 
-1000 -1000 -1000 -1000 -1000 -1000 -1000 -1000 -1000 
-1000 -1000 -1000 -1000 -1000 -1000 -1000 -1000 -1000 
-1000 -1000 -1000 -1000 -1000 -1000 -1000 -1000 -1000 
-1000 -1000 -1000 -1000 -1000 -1000 -1000 -1000 -1000 
-1000 -1000 -1000 -1000 -1000 -1000 -1000 -1000 -1000 
-1000 -1000 -1000 -1000 -1000 -1000 -1000 -1000 -1000 
-1000 -1000 -1000 -1000 -1000 -1000 -1000 -1000 -1000 
-1000 -1000 -1000 -1000 -1000 -1000 -1000 -1000 -1000 
-1000 -1000 -1000 -1000 -1000 -1000 -1000 -1000 -1000 
-1000 -1000 -1000 -1000 -1000 -1000 -1000 -1000 -1000 
-1000 -1000 -1000 -1000 -1000 -1000 -1000 -1000 -1000 
-1000 -1000 -1000 -1000 -1000 -1000 -1000 -1000 -1000 
-1000 -1000 -1000 -1000 -1000 -1000 -1000 -1000 -1000 
-1000 -1000 -1000 -1000 -1000 -1000 -1000 -1000 -1000 
-1000 -1000 -1000 -1000 -1000 -1000 -1000 -1000 -1000 
-1000 -1000 -1000 -1000 -1000 -1000 -1000 -1000 -1000 
-1000 -1000 -1000 -1000 -1000 -1000 -1000 -1000 -1000 
-1000 -1000 -1000 -1000 -1000 -1000 -1000 -1000 -1000 
-1000 -1000 -1000 -1000 -1000 -1000 -1000 -1000 -1000 
-1000 -1000 -1000 -1000 -1000 -1000 -1000 -1000 -1000 
-1000 -1000 -1000 -1000 -1000 -1000 -1000 -1000 -1000 
-1000 -1000 -1000 -1000 -1000 -1000 -1000 -1000 -1000 
-1000 -1000 -1000 -1000 -1000 -1000 -1000 -1000 -1000 
-1000 -1000 -1000 -1000 -1000 -1000 -1000 -1000 -1000 
-1000 -1000 -1000 -1000 -1000 -1000 -1000 -1000 -1000 
-1000 -1000 -1000 -1000 -1000 -1000 -1000 -1000 -1000 
-1000 -1000 -1000 -1000 -1000 -1000 -1000 -1000 -1000 
-1000 -1000 -1000 -1000 -1000 -1000 -1000 -1000 -1000 
-1000 -1000 -1000 -1000 -1000 -1000 -1000 -1000 -1000 
-1000 -1000 -1000 -1000 -1000 -1000 -1000 -1000 -1000 
-1000 -1000 -1000 -1000 -1000 -1000 -1000 -1000 -1000 
-1000 -1000 -1000 -1000 -1000 -1000 -1000 -1000 -1000 
-1000 -1000 -1000 -1000 -1000 -1000 -1000 -1000 -1000 
-1000 -1000 -1000 -1000 -1000 -1000 -1000 -1000 -1000 
-1000 -1000 -1000 -1000 -1000 -1000 -1000 -1000 -1000 
-1000 -1000 -1000 -1000 -1000 -1000 -1000 -1000 -1000 
-1000 -1000 -1000 -1000 -1000 -1000 -1000 -1000 -1000 
-1000 -1000 -1000 -1000 -1000 -1000 -1000 -1000 -1000 
-1000 -1000 -1000 -1000 -1000 -1000 -1000 -1000 -1000 
-1000 -1000 -1000 -1000 -1000 -1000 -1000 -1000 -1000 
-1000 -1000 -1000 -1000 -1000 -1000 -1000 -1000 -1000 
-1000 -1000 -1000 -1000 -1000 -1000 -1000 -1000 -1000 
-1000 -1000 -1000 -1000 -1000 -1000 -1000 -1000 -1000 
-1000 -1000 -1000 -1000 -1000 -1000 -1000 -1000 -1000 
-1000 -1000 -1000 -1000 -1000 -1000 -1000 -1000 -1000 
-1000 -1000 -1000 -1000 -1000 -1000 -1000 -1000 -1000 
-1000 -1000 -1000 -1000 -1000 -1000 -1000 -1000 -1000 
-1000 -1000 -1000 -1000 -1000 -1000 -1000 -1000 -1000 
-1000 -1000 -1000 -1000 -1000 -1000 -1000 -1000 -1000 
-1000 -1000 -1000 -1000 -1000 -1000 -1000 -1000 -1000 
-1000 -1000 -1000 -1000 -1000 -1000 -1000 -1000 -1000 
-1000 -1000 -1000 -1000 -1000 -1000 -1000 -1000 -1000 
-1000 -1000 -1000 -1000 -1000 -1000 -1000 -1000 -1000 
-1000 -1000 -1000 -1000 -1000 -1000 -1000 -1000 -1000 
-1000 -1000 -1000 -1000 -1000 -1000 -1000 -1000 -1000 
-1000 -1000 -1000 -1000 -1000 -1000 -1000 -1000 -1000 
-1000 -1000 -1000 -1000 -1000 -1000 -1000 -1000 -1000 
-1000 -1000 -1000 -1000 -1000 -1000 -1000 -1000 -1000 
-1000 -1000 -1000 -1000 -1000 -1000 -1000 -1000 -1000 
-1000 -1000 -1000 -1000 -1000 -1000 -1000 -1000 -1000 
-1000 -1000 -1000 -1000 -1000 -1000 -1000 -1000 -1000 
-1000 -1000 -1000 -1000 -1000 -1000 -1000 -1000 -1000 
-1000 -1000 -1000 -1000 -1000 -1000 -1000 -1000 -1000 