# vtk DataFile Version 3.0
vtk output
ASCII
DATASET POLYDATA
POINTS 13638 float
-70.8666 -22.7842 -64.0507 -71.0596 -22.6453 -64.084 -71.0448 -22.6682 -64.0316 
-71.0627 -22.6424 -64.0846 -71.8319 -22.0092 -64.2253 -71.8235 -22.0328 -64.0513 
-72.2751 -21.5424 -64.3167 -73.2333 -20.2209 -64.5463 -73.3004 -20.0491 -64.5704 
-73.2654 -20.1904 -64.3572 -72.8625 -20.8008 -64.4505 -56.7524 -23.7146 -62.5571 
-56.9971 -23.8423 -62.5684 -57.0827 -23.9359 -62.3755 -57.5739 -24.0109 -62.6084 
-57.7582 -24.0579 -62.6219 -58.5526 -24.2306 -62.683 -58.6703 -24.3463 -62.2863 
-59.0012 -24.3657 -62.7137 -59.2662 -24.5065 -62.4644 -59.2198 -24.4377 -62.7281 
-59.9257 -24.7117 -62.7701 -60.1806 -24.7875 -62.7877 -60.1467 -24.8456 -62.4988 
-60.9086 -25.0102 -62.8372 -61.1151 -25.1622 -62.4093 -61.7324 -25.1665 -62.9029 
-62.0363 -25.2144 -62.9281 -62.2712 -25.313 -62.7413 -61.9804 -25.415 -62.0752 
-61.4167 -25.1052 -62.8778 -62.7538 -25.4755 -62.3299 -62.3352 -25.263 -62.9528 
-64.1644 -25.382 -63.122 -64.2368 -25.4143 -63.0152 -63.5943 -25.3902 -63.0647 
-63.5141 -25.4676 -62.6734 -63.1731 -25.348 -63.0272 -62.6884 -25.3139 -62.9826 
-64.2875 -25.5235 -62.1362 -64.2401 -25.3792 -63.1298 -64.5088 -25.3333 -63.1611 
-65.0164 -25.2491 -63.22 -65.1571 -25.2283 -63.236 -65.5009 -25.3475 -62.2521 
-66.349 -24.9621 -63.3812 -66.591 -24.9051 -63.411 -66.9645 -24.8895 -63.1638 
-66.3766 -25.133 -62.6256 -66.2223 -24.9839 -63.3665 -67.0136 -25.0131 -62.35 
-67.0659 -24.788 -63.47 -67.8606 -24.5278 -63.5753 -67.8751 -24.5233 -63.5772 
-67.8802 -24.5211 -63.5779 -68.1493 -24.5047 -62.5734 -69.0256 -23.9852 -63.746 
-69.0527 -23.9692 -63.7503 -69.2197 -23.8738 -62.7853 -70.0885 -23.3416 -63.9169 
-70.1008 -23.3328 -63.919 -70.2308 -23.186 -62.9803 -71.1932 -22.4842 -63.1418 
-72.1063 -21.7363 -63.3093 -72.5546 -21.2441 -64.3748 -72.6295 -21.1656 -64.3902 
-72.9426 -20.8632 -63.4026 -73.6873 -19.119 -64.2627 -73.5867 -19.8964 -63.3591 
-73.5907 -19.2192 -64.6837 -73.7759 -18.0717 -64.8188 -73.7949 -17.2617 -64.9032 
-73.9019 -18.0539 -64.1449 -73.6863 -18.6703 -64.749 -73.4666 -15.2202 -65.0785 
-73.4323 -15.0315 -65.0943 -73.4587 -15.2368 -64.8769 -73.6785 -16.1916 -65.0006 
-73.6635 -16.1125 -65.0072 -73.6584 -16.2221 -64.8905 -73.7265 -16.5849 -64.9653 
-53.0749 -20.5705 -62.5128 -53.4152 -20.7693 -62.5263 -53.4812 -20.8791 -62.3995 
-53.5184 -20.8429 -62.529 -54.4215 -21.59 -62.5424 -54.5354 -21.7206 -62.5404 
-54.5328 -21.7269 -62.345 -54.2573 -21.4284 -62.5426 -55.0641 -22.2868 -62.5352 
-55.4053 -22.6524 -62.5318 -55.3997 -22.5926 -62.0096 -55.7203 -22.9707 -62.5306 
-56.303 -23.4484 -62.5397 -56.2717 -23.4124 -61.6979 -57.4628 -24.1403 -61.9785 
-57.167 -24.0583 -61.5473 -56.4672 -23.5695 -62.5437 -57.9053 -24.3939 -61.4238 
-57.6659 -24.039 -62.6147 -59.2323 -24.5988 -61.7398 -58.7054 -24.6062 -61.3278 
-57.7027 -24.0488 -62.6173 -57.684 -24.0445 -62.6159 -59.5001 -24.8336 -61.0956 
-60.0235 -24.9376 -61.4273 -61.4758 -25.4024 -61.7057 -60.9435 -25.2719 -61.4996 
-61.863 -25.5852 -61.0125 -63.3699 -25.612 -61.8663 -62.7201 -25.6502 -61.4101 
-63.5737 -25.7219 -61.0829 -64.6657 -25.6449 -60.9982 -65.5948 -25.4955 -61.3757 
-66.1393 -25.3151 -61.9524 -66.2879 -25.3645 -61.2781 -67.2614 -24.9865 -61.3936 
-68.3229 -24.4092 -61.5993 -69.3472 -23.7431 -61.8179 -70.35 -23.0395 -62.0343 
-71.3413 -22.3091 -62.2277 -72.3093 -21.5193 -62.3582 -73.24 -20.5837 -62.3394 
-74.0224 -18.8614 -63.044 -73.8314 -19.72 -62.5694 -73.9443 -17.1148 -64.0376 
-74.1015 -17.8424 -63.377 -73.7951 -17.1348 -64.9161 -73.3019 -14.325 -64.8441 
-73.6067 -15.0771 -63.9777 -73.2937 -14.3174 -65.1533 -73.8774 -16.1885 -63.7639 
-73.2128 -13.475 -65.231 -73.1668 -12.7668 -65.2986 -73.2975 -13.489 -64.5465 
-73.257 -13.9694 -65.1851 -73.1167 -11.7379 -65.3983 -73.1105 -11.5871 -65.4131 
-73.1002 -11.7478 -65.2528 -73.1285 -12.1161 -65.361 -50.9312 -18.9108 -62.4693 
-51.0219 -18.9916 -62.4701 -51.0254 -19.015 -62.3322 -50.7047 -18.6749 -62.4709 
-51.5623 -19.493 -62.4726 -51.9008 -19.7343 -62.4815 -51.8625 -19.7606 -62.0009 
-52.2819 -20.0436 -62.4878 -52.8585 -20.4354 -62.5051 -52.7302 -20.482 -61.6661 
-54.0996 -21.3986 -61.9266 -53.6371 -21.1806 -61.4076 -52.9054 -20.4697 -62.5062 
-54.7259 -21.9264 -61.4697 -54.5243 -21.8973 -60.9137 -55.1182 -22.3362 -60.7717 
-53.8376 -21.0669 -62.5378 -55.3055 -22.4238 -61.2706 -56.2024 -23.2552 -60.7082 
-57.1342 -24.0414 -60.4759 -58.3638 -24.6758 -60.8239 -58.0316 -24.6137 -60.4043 
-58.8063 -24.9197 -60.2848 -60.0538 -25.1183 -60.5538 -59.456 -25.0228 -60.4029 
-60.204 -25.3631 -59.6037 -61.0423 -25.4632 -60.2673 -62.0733 -25.7539 -60.0693 
-62.7591 -25.7902 -60.4581 -63.5956 -25.8506 -59.9205 -64.6325 -25.788 -59.8336 
-65.4553 -25.6107 -60.5439 -66.2656 -25.4355 -60.2081 -67.4131 -24.9323 -60.3829 
-68.466 -24.3339 -60.5797 -69.5007 -23.665 -60.8304 -70.5165 -22.9476 -61.099 
-71.511 -22.2032 -61.2989 -72.4652 -21.4258 -61.3998 -73.2032 -20.7351 -61.3358 
-74.0495 -19.3389 -62.2941 -73.8158 -19.8761 -61.7174 -74.1306 -17.1988 -63.2344 
-74.2414 -17.9148 -62.5865 -74.2025 -18.8469 -61.8467 -73.4736 -14.3372 -64.076 
-73.7015 -14.7904 -63.3896 -73.9723 -15.7055 -62.7821 -74.2064 -16.9031 -62.5792 
-73.2599 -12.5316 -64.477 -73.4956 -13.2054 -63.6519 -73.1538 -12.585 -65.3158 
-73.5999 -14.0502 -63.4796 -73.1091 -10.8889 -65.0265 -73.2953 -11.7118 -64.1126 
-73.0877 -10.9204 -65.4787 -73.0248 -9.4014 -65.6271 -73.0043 -9.35073 -65.6029 
-73.0597 -10.12 -65.5574 -73.1305 -10.0414 -64.8072 -73.0227 -9.34449 -65.6327 
-73.0675 -10.4315 -65.5265 -72.9588 -8.56128 -65.7061 -72.9211 -8.27974 -65.731 
-72.9645 -8.52384 -65.4232 -73.021 -9.32108 -65.6349 -49.2405 -17.0825 -62.4879 
-49.4446 -17.3025 -62.4857 -49.4624 -17.2609 -62.1819 -48.7337 -16.5479 -62.4921 
-49.7967 -17.687 -62.4814 -50.2245 -18.1583 -62.4759 -50.2651 -18.0361 -61.7981 
-50.354 -18.3015 -62.4741 -51.0671 -18.8192 -61.4114 -51.8725 -19.5933 -61.0428 
-52.688 -20.3519 -60.6939 -53.5276 -21.108 -60.3619 -54.3904 -21.8735 -60.0353 
-55.7403 -22.8953 -60.2972 -55.2833 -22.6302 -59.7914 -56.3959 -23.4609 -59.8039 
-56.1625 -23.3801 -59.302 -56.7691 -23.8194 -59.1131 -57.1229 -24.02 -59.4637 
-58.0272 -24.6662 -59.3081 -59.4083 -25.2026 -59.663 -58.8354 -25.0798 -59.3846 
-59.6792 -25.3964 -58.8509 -60.5098 -25.6245 -58.5275 -61.147 -25.6733 -59.0104 
-62.6629 -25.8808 -59.6587 -61.9658 -25.8183 -59.2974 -62.8454 -25.9613 -58.8922 
-63.9191 -25.9498 -58.7651 -64.8121 -25.8475 -59.1262 -65.3317 -25.7168 -59.7358 
-65.5208 -25.7225 -59.0705 -66.4989 -25.3887 -59.1734 -67.5636 -24.9077 -59.3283 
-68.671 -24.3603 -59.4615 -69.8025 -23.6325 -59.9435 -70.8004 -22.9121 -60.2359 
-71.7772 -22.1527 -60.432 -72.7115 -21.3571 -60.5347 -73.5882 -20.415 -60.5877 
-74.0867 -19.4786 -60.9797 -74.3604 -17.7569 -61.6407 -74.3664 -18.6387 -60.7736 
-73.8673 -14.7613 -62.5537 -74.1304 -15.6056 -61.5878 -74.3003 -16.665 -61.6123 
-73.4517 -12.5287 -63.6918 -73.6428 -12.9524 -63.0443 -73.7792 -13.756 -62.5545 
-73.2564 -10.7498 -63.979 -73.4528 -11.4313 -63.0687 -73.5792 -12.2764 -63.0605 
-73.1431 -9.21543 -64.5745 -73.2754 -9.90033 -63.7632 -72.8489 -7.67338 -65.3079 
-73.0755 -8.36567 -64.3985 -72.8374 -7.75095 -65.7766 -72.5829 -5.53 -65.9775 
-72.5845 -5.40957 -65.9533 -72.5471 -6.17965 -65.9078 -72.6026 -6.0614 -65.2281 
-72.589 -5.43512 -65.9877 -72.6744 -6.92961 -65.844 -72.579 -6.39792 -65.8887 
-72.6995 -6.81894 -65.2489 -72.7467 -7.30322 -65.8132 -72.5966 -5.40176 -65.9919 
-72.7809 -4.66713 -66.0849 -72.7783 -4.63938 -66.0662 -72.944 -4.02968 -66.166 
-73.0832 -3.31855 -66.2522 -72.9851 -3.94531 -65.6866 -72.7882 -4.63671 -66.0887 
-73.1754 -2.52597 -66.342 -73.1651 -1.96258 -66.3983 -73.2469 -2.42137 -65.9059 
-73.093 -3.26135 -66.259 -72.7612 0.000903521 -66.5582 -72.6703 0.327483 -66.5825 
-72.8189 0.0563631 -66.2583 -73.0074 -0.868613 -66.4941 -72.9855 -0.794472 -66.4995 
-73.0147 -0.819522 -66.4246 -73.0483 -1.09645 -66.475 -71.468 3.33469 -66.7695 
-71.4326 3.42091 -66.7747 -71.4625 3.39139 -66.6946 -71.6324 2.98783 -66.7504 
-69.9197 6.63932 -66.9525 -69.9128 6.65459 -66.9533 -69.8834 6.68314 -66.9414 
-69.9492 6.58231 -66.9496 -46.9633 -14.7772 -62.4969 -47.0953 -14.9062 -62.4968 
-47.1001 -14.8885 -62.3373 -46.5664 -14.3865 -62.4973 -47.5337 -15.3395 -62.4962 
-47.8711 -15.673 -62.4956 -47.8883 -15.5952 -62.0198 -48.1078 -15.9105 -62.4949 
-48.6594 -16.4701 -62.4926 -48.691 -16.3215 -61.6709 -48.6806 -16.4921 -62.4925 
-49.4999 -17.0681 -61.2956 -50.3088 -17.8335 -60.9038 -51.1121 -18.6113 -60.5099 
-51.9047 -19.3898 -60.1316 -52.6757 -20.1458 -59.7942 -53.4544 -20.9026 -59.4344 
-54.2965 -21.7234 -59.0566 -55.1683 -22.5642 -58.7481 -56.0257 -23.3501 -58.4577 
-57.2839 -24.2102 -58.6208 -56.8924 -24.026 -58.2494 -57.6048 -24.5101 -57.9316 
-38.1006 -5.20052 -62.5935 -38.2167 -5.45665 -62.5789 -38.1857 -5.46809 -62.4307 
-38.287 -5.58708 -62.5726 -38.4656 -5.88876 -62.5596 -58.0139 -24.7056 -58.2699 
-59.0301 -25.2687 -58.2108 -60.0126 -25.659 -57.8823 -37.3903 -2.78003 -62.7695 
-37.4367 -3.00114 -62.7516 -37.3723 -2.99846 -62.6252 -37.4587 -3.11306 -62.7424 
-37.6727 -4.05006 -62.6682 -37.6455 -4.06908 -62.6442 -37.6871 -4.11168 -62.6634 
-37.7322 -4.24824 -62.6539 -60.7788 -25.9112 -57.5407 -61.1666 -25.8258 -58.2021 
-61.4644 -26.0198 -57.634 -36.831 0.112648 -63.0086 -36.907 -0.595669 -62.944 
-36.7664 -0.420527 -62.442 -37.091 -1.46214 -62.874 -37.1116 -1.55566 -62.8665 
-37.0782 -1.55468 -62.8323 -37.1275 -1.60352 -62.8632 -37.1675 -1.75982 -62.8513 
-61.935 -25.9555 -58.2686 -62.8872 -26.1082 -57.7163 -36.8466 0.790496 -63.0791 
-36.7395 0.751581 -62.7106 -36.8872 1.16361 -63.1211 -36.8241 1.5306 -62.8124 
-36.92 1.53185 -63.1619 -36.8306 0.126488 -63.0099 -63.89 -26.0695 -57.645 
-36.976 2.3205 -63.2477 -36.8351 2.55953 -62.4079 -36.9993 2.82078 -63.301 
-36.9633 3.06855 -63.2714 -37.0127 3.04449 -63.3251 -36.949 2.00541 -63.213 
[...]
POINT_DATA 13638
SCALARS scalars float
LOOKUP_TABLE default
-1000 -1000 -1000 -1000 -1000 -1000 -1000 -1000 -1000 
-1000 -1000 -1000 -1000 -1000 -1000 -1000 -1000 -1000 
-1000 -1000 -1000 -1000 -1000 -1000 -1000 -1000 -1000 
-1000 -1000 -1000 -1000 -1000 -1000 -1000 -1000 -1000 
-1000 -1000 -1000 -1000 -1000 -1000 -1000 -1000 -1000 
-1000 -1000 -1000 -1000 -1000 -1000 -1000 -1000 -1000 
-1000 -1000 -1000 -1000 -1000 -1000 -1000 -1000 -1000 
-1000 -1000 -1000 -1000 -1000 -1000 -1000 -1000 -1000 
-1000 -1000 -1000 -1000 -1000 -1000 -1000 -1000 -1000 
-1000 -1000 -1000 -1000 -1000 -1000 -1000 -1000 -1000 
-1000 -1000 -1000 -1000 -1000 -1000 -1000 -1000 -1000 
-1000 -1000 -1000 -1000 -1000 -1000 -1000 -1000 -1000 
-1000 -1000 -1000 -1000 -1000 -1000 -1000 -1000 -1000 
-1000 -1000 -1000 -1000 -1000 -1000 -1000 -1000 -1000 
-1000 -1000 -1000 -1000 -1000 -1000 -1000 -1000 -1000 
-1000 -1000 -1000 -1000 -1000 -1000 -1000 -1000 -1000 
-1000 -1000 -1000 -1000 -1000 -1000 -1000 -1000 -1000 
-1000 -1000 -1000 -1000 -1000 -1000 -1000 -1000 -1000 
-1000 -1000 -1000 -1000 -1000 -1000 -1000 -1000 -1000 
-1000 -1000 -1000 -1000 -1000 -1000 -1000 -1000 -1000 
-1000 -1000 -1000 -1000 -1000 -1000 -1000 -1000 -1000 
-1000 -1000 -1000 -1000 -1000 -1000 -1000 -1000 -1000 
-1000 -1000 -1000 -1000 -1000 -1000 -1000 -1000 -1000 
-1000 -1000 -1000 -1000 -1000 -1000 -1000 -1000 -1000 
-1000 -1000 -1000 -1000 -1000 -1000 -1000 -1000 -1000 
-1000 -1000 -1000 -1000 -1000 -1000 -1000 -1000 -1000 
-1000 -1000 -1000 -1000 -1000 -1000 -1000 -1000 -1000 
-1000 -1000 -1000 -1000 -1000 -1000 -1000 -1000 -1000 
-1000 -1000 -1000 -1000 -1000 -1000 -1000 -1000 -1000 
-1000 -1000 -1000 -1000 -1000 -1000 -1000 -1000 -1000 
-1000 -1000 -1000 -1000 -1000 -1000 -1000 -1000 -1000 
-1000 -1000 -1000 -1000 -1000 -1000 -1000 -1000 -1000 
-1000 -1000 -1000 -1000 -1000 -1000 -1000 -1000 -1000 
-1000 -1000 -1000 -1000 -1000 -1000 -1000 -1000 -1000 
-1000 -1000 -1000 -1000 -1000 -1000 -1000 -1000 -1000 
-1000 -1000 -1000 -1000 -1000 -1000 -1000 -1000 -1000 
-1000 -1000 -1000 -1000 -1000 -1000 -1000 -1000 -1000 
-1000 -1000 -1000 -1000 -1000 -1000 -1000 -1000 -1000 
-1000 -1000 -1000 -1000 -1000 -1000 -1000 -1000 -1000 
-1000 -1000 -1000 -1000 -1000 -1000 -1000 -1000 -1000 
-1000 -1000 -1000 -1000 -1000 -1000 -1000 -1000 -1000 
-1000 -1000 -1000 -1000 -1000 -1000 -1000 -1000 -1000 
-1000 -1000 -1000 -1000 -1000 -1000 -1000 -1000 -1000 
-1000 -1000 -1000 -1000 -1000 -1000 -1000 -1000 -1000 
-1000 -1000 -1000 -1000 -1000 -1000 -1000 -1000 -1000 
-1000 -1000 -1000 -1000 -1000 -1000 -1000 -1000 -1000 
-1000 -1000 -1000 -1000 -1000 -1000 -1000 -1000 -1000 
-1000 -1000 -1000 -1000 -1000 -1000 -1000 -1000 -1000 
-1000 -1000 -1000 -1000 -1000 -1000 -1000 -1000 -1000 
-1000 -1000 -1000 -1000 -1000 -1000 -1000 -1000 -1000 
-1000 -1000 -1000 -1000 -1000 -1000 -1000 -1000 -1000 
-1000 -1000 -1000 -1000 -1000 -1000 -1000 -1000 -1000 
-1000 -1000 -1000 -1000 -1000 -1000 -1000 -1000 -1000 
-1000 -1000 -1000 -1000 -1000 -1000 -1000 -1000 -1000 
-1000 -1000 -1000 -1000 -1000 -1000 -1000 -1000 -1000 
-1000 -1000 -1000 -1000 -1000 -1000 -1000 -1000 -1000 
-1000 -1000 -1000 -1000 -1000 -1000 -1000 -1000 -1000 
-1000 -1000 -1000 -1000 -1000 -1000 -1000 -1000 -1000 
-1000 -1000 -1000 -1000 -1000 -1000 -1000 -1000 -1000 
-1000 -1000 -1000 -1000 -1000 -1000 -1000 -1000 -1000 
-1000 -1000 -1000 -1000 -1000 -1000 -1000 -1000 -1000 
-1000 -1000 -1000 -1000 -1000 -1000 -1000 -1000 -1000 
-1000 -1000 -1000 -1000 -1000 -1000 -1000 -1000 -1000 
-1000 -1000 -1000 -1000 -1000 -1000 -1000 -1000 -1000 
-1000 -1000 -1000 -1000 -1000 -1000 -1000 -1000 -1000 
-1000 -1000 -1000 -1000 -1000 -1000 -1000 -1000 -1000 
-1000 -1000 -1000 -1000 -1000 -1000 -1000 -1000 -1000 
-1000 -1000 -1000 -1000 -1000 -1000 -1000 -1000 -1000 
-1000 -1000 -1000 -1000 -1000 -1000 -1000 -1000 -1000 
-1000 -1000 -1000 -1000 -1000 -1000 -1000 -1000 -1000 
-1000 -1000 -1000 -1000 -1000 -1000 -1000 -1000 -1000 
-1000 -1000 -1000 -1000 -1000 -1000 -1000 -1000 -1000 
-1000 -1000 -1000 -1000 -1000 -1000 -1000 -1000 -1000 
-1000 -1000 -1000 -1000 -1000 -1000 -1000 -1000 -1000 
-1000 -1000 -1000 -1000 -1000 -1000 -1000 -1000 -1000 
-1000 -1000 -1000 -1000 -1000 -1000 -1000 -1000 -1000 
-1000 -1000 -1000 -1000 -1000 -1000 -1000 -1000 -1000 
-1000 -1000 -1000 -1000 -1000 -1000 -1000 -1000 -1000 
-1000 -1000 -1000 -1000 -1000 -1000 -1000 -1000 -1000 
-1000 -1000 -1000 -1000 -1000 -1000 -1000 -1000 -1000 
-1000 -1000 -1000 -1000 -1000 -1000 -1000 -1000 -1000 
-1000 -1000 -1000 -1000 -1000 -1000 -1000 -1000 -1000 
-1000 -1000 -1000 -1000 -1000 -1000 -1000 -1000 -1000 
-1000 -1000 -1000 -1000 -1000 -1000 -1000 -1000 -1000 
-1000 -1000 -1000 -1000 -1000 -1000 -1000 -1000 -1000 
-1000 -1000 -1000 -1000 -1000 -1000 -1000 -1000 -1000 
-1000 -1000 -1000 -1000 -1000 -1000 -1000 -1000 -1000 
-1000 -1000 -1000 -1000 -1000 -1000 -1000 -1000 -1000 
-1000 -1000 -1000 -1000 -1000 -1000 -1000 -1000 -1000 
-1000 -1000 -1000 -1000 -1000 -1000 -1000 -1000 -1000 
-1000 -1000 -1000 -1000 -1000 -1000 -1000 -1000 -1000 
-1000 -1000 -1000 -1000 -1000 -1000 -1000 -1000 -1000 
-1000 -1000 -1000 -1000 -1000 -1000 -1000 -1000 -1000 
-1000 -1000 -1000 -1000 -1000 -1000 -1000 -1000 -1000 
-1000 -1000 -1000 -1000 -1000 -1000 -1000 -1000 -1000 
-1000 -1000 -1000 -1000 -1000 -1000 -1000 -1000 -1000 
-1000 -1000 -1000 -1000 -1000 -1000 -1000 -1000 -1000 
-1000 -1000 -1000 -1000 -1000 -1000 -1000 -1000 -1000 
-1000 -1000 -1000 -1000 -1000 -1000 -1000 -1000 -1000 
-1000 -1000 -1000 -1000 -1000 -1000 -1000 -1000 -1000 
-1000 -1000 -1000 -1000 -1000 -1000 -1000 -1000 -1000 
-1000 -1000 -1000 -1000 -1000 -1000 -1000 -1000 -1000 
-1000 -1000 -1000 -1000 -1000 -1000 -1000 -1000 -1000 
-1000 -1000 -1000 -1000 -1000 -1000 -1000 -1000 -1000 
-1000 -1000 -1000 -1000 -1000 -1000 -1000 -1000 -1000 
-1000 -1000 -1000 -1000 -1000 -1000 -1000 -1000 -1000 
-1000 -1000 -1000 -1000 -1000 -1000 -1000 -1000 -1000 
-1000 -1000 -1000 -1000 -1000 -1000 -1000 -1000 -1000 
-1000 -1000 -1000 -1000 -1000 -1000 -1000 -1000 -1000 
-1000 -1000 -1000 -1000 -1000 -1000 -1000 -1000 -1000 
-1000 -1000 -1000 -1000 -1000 -1000 -1000 -1000 -1000 
-1000 -1000 -1000 -1000 -1000 -1000 -1000 -1000 -1000 
-1000 -1000 -1000 -1000 -1000 -1000 -1000 -1000 -1000 
-1000 -1000 -1000 -1000 -1000 -1000 -1000 -1000 -1000 
-1000 -1000 -1000 -1000 -1000 -1000 -1000 -1000 -1000 
-1000 -1000 -1000 -1000 -1000 -1000 -1000 -1000 -1000 
-1000 -1000 -1000 -1000 -1000 -1000 -1000 -1000 -1000 
-1000 -1000 -1000 -1000 -1000 -1000 -1000 -1000 -1000 
-1000 -1000 -1000 -1000 -1000 -1000 -1000 -1000 -1000 
-1000 -1000 -1000 -1000 -1000 -1000 -1000 -1000 -1000 
-1000 -1000 -1000 -1000 -1000 -1000 -1000 -1000 -1000 
-1000 -1000 -1000 -1000 -1000 -1000 -1000 -1000 -1000 
-1000 -1000 -1000 -1000 -1000 -1000 -1000 -1000 -1000 
-1000 -1000 -1000 -1000 -1000 -1000 -1000 -1000 -1000 
-1000 -1000 -1000 -1000 -1000 -1000 -1000 -1000 -1000 
-1000 -1000 -1000 -1000 -1000 -1000 -1000 -1000 -1000 
-1000 -1000 -1000 -1000 -1000 -1000 -1000 -1000 -1000 
-1000 -1000 -1000 -1000 -1000 -1000 -1000 -1000 -1000 
-1000 -1000 -1000 -1000 -1000 -1000 -1000 -1000 -1000 
-1000 -1000 -1000 -1000 -1000 -1000 -1000 -1000 -1000 
-1000 -1000 -1000 -1000 -1000 -1000 -1000 -1000 -1000 
-1000 -1000 -1000 -1000 -1000 -1000 -1000 -1000 -1000 
-1000 -1000 -1000 -1000 -1000 -1000 -1000 -1000 -1000 
-1000 -1000 -1000 -1000 -1000 -1000 -1000 -1000 -1000 
-1000 -1000 -1000 -1000 -1000 -1000 -1000 -1000 -1000 
-1000 -1000 -1000 -1000 -1000 -1000 -1000 -1000 -1000 
-1000 -1000 -1000 -1000 -1000 -1000 -1000 -1000 -1000 
-1000 -1000 -1000 -1000 -1000 -1000 -1000 -1000 -1000 
-1000 -1000 -1000 -1000 -1000 -1000 -1000 -1000 -1000 
-1000 -1000 -1000 -1000 -1000 -1000 -1000 -1000 -1000 
-1000 -1000 -1000 -1000 -1000 -1000 -1000 -1000 -1000 
-1000 -1000 -1000 -1000 -1000 -1000 -1000 -1000 -1000 
-1000 -1000 -1000 -1000 -1000 -1000 -1000 -1000 -1000 
-1000 -1000 -1000 -1000 -1000 -1000 -1000 -1000 -1000 
-1000 -1000 -1000 -1000 -1000 -1000 -1000 -1000 -1000 
-1000 -1000 -1000 -1000 -1000 -1000 -1000 -1000 -1000 
-1000 -1000 -1000 -1000 -1000 -1000 -1000 -1000 -1000 
-1000 -1000 -1000 -1000 -1000 -1000 -1000 -1000 -1000 
-1000 -1000 -1000 -1000 -1000 -1000 -1000 -1000 -1000 
-1000 -1000 -1000 -1000 -1000 -1000 -1000 -1000 -1000 
-1000 -1000 -1000 -1000 -1000 -1000 -1000 -1000 -1000 
-1000 -1000 -1000 -1000 -1000 -1000 -1000 -1000 -1000 
-1000 -1000 -1000 -1000 -1000 -1000 -1000 -1000 -1000 
-1000 -1000 -1000 -1000 -1000 -1000 -1000 -1000 -1000 
-1000 -1000 -1000 -1000 -1000 -1000 -1000 -1000 -1000 
-1000 -1000 -1000 -1000 -1000 -1000 -1000 -1000 -1000 
-1000 -1000 -1000 -1000 -1000 -1000 -1000 -1000 -1000 
-1000 -1000 -1000 -1000 -1000 -1000 -1000 -1000 -1000 
-1000 -1000 -1000 -1000 -1000 -1000 -1000 -1000 -1000 
-1000 -1000 -1000 -1000 -1000 -1000 -1000 -1000 -1000 
-1000 -1000 -1000 -1000 -1000 -1000 -1000 -1000 -1000 
-1000 -1000 -1000 -1000 -1000 -1000 -1000 -1000 -1000 
-1000 -1000 -1000 -1000 -1000 -1000 -1000 -1000 -1000 
-1000 -1000 -1000 -1000 -1000 -1000 -1000 -1000 -1000 
-1000 -1000 -1000 -1000 -1000 -1000 -1000 -1000 -1000 
-1000 -1000 -1000 -1000 -1000 -1000 -1000 -1000 -1000 
-1000 -1000 -1000 -1000 -1000 -1000 -1000 -1000 -1000 
-1000 -1000 -1000 -1000 -1000 -1000 -1000 -1000 -1000 
-1000 -1000 -1000 -1000 -1000 -1000 -1000 -1000 -1000 
-1000 -1000 -1000 -1000 -1000 -1000 -1000 -1000 -1000 
-1000 -1000 -1000 -1000 -1000 -1000 -1000 -1000 -1000 
-1000 -1000 -1000 -1000 -1000 -1000 -1000 -1000 -1000 
-1000 -1000 -1000 -1000 -1000 -1000 -1000 -1000 -1000 
-1000 -1000 -1000 -1000 -1000 -1000 -1000 -1000 -1000 
-1000 -1000 -1000 -1000 -1000 -1000 -1000 -1000 -1000 
-1000 -1000 -1000 -1000 -1000 -1000 -1000 -1000 -1000 
-1000 -1000 -1000 -1000 -1000 -1000 -1000 -1000 -1000 
-1000 -1000 -1000 -1000 -1000 -1000 -1000 -1000 -1000 
-1000 -1000 -1000 -1000 -1000 -1000 -1000 -1000 -1000 
-1000 -1000 -1000 -1000 -1000 -1000 -1000 -1000 -1000 
-1000 -1000 -1000 -1000 -1000 -1000 -1000 -1000 -1000 
-1000 -1000 -1000 -1000 -1000 -1000 -1000 -1000 -1000 
-1000 -1000 -1000 -1000 -1000 -1000 -1000 -1000 -1000 
-1000 -1000 -1000 -1000 -1000 -1000 -1000 -1000 -1000 
-1000 -1000 -1000 -1000 -1000 -1000 -1000 -1000 -1000 
-1000 -1000 -1000 -1000 -1000 -1000 -1000 -1000 -1000 
-1000 -1000 -1000 -1000 -1000 -1000 -1000 -1000 -1000 
-1000 -1000 -1000 -1000 -1000 -1000 -1000 -1000 -1000 
-1000 -1000 -1000 -1000 -1000 -1000 -1000 -1000 -1000 
-1000 -1000 -1000 -1000 -1000 -1000 -1000 -1000 -1000 
-1000 -1000 -1000 -1000 -1000 -1000 -1000 -1000 -1000 
-1000 -1000 -1000 -1000 -1000 -1000 -1000 -1000 -1000 
-1000 -1000 -1000 -1000 -1000 -1000 -1000 -1000 -1000 
-1000 -1000 -1000 -1000 -1000 -1000 -1000 -1000 -1000 
-1000 -1000 -1000 -1000 -1000 -1000 -1000 -1000 -1000 
-1000 -1000 -1000 -1000 -1000 -1000 -1000 -1000 -1000 
-1000 -1000 -1000 -1000 -1000 -1000 -1000 -1000 -1000 
-1000 -1000 -1000 -1000 -1000 -1000 -1000 -1000 -1000 
-1000 -1000 -1000 -1000 -1000 -1000 -1000 -1000 -1000 
-1000 -1000 -1000 -1000 -1000 -1000 -1000 -1000 -1000 
-1000 -1000 -1000 -1000 -1000 -1000 -1000 -1000 -1000 
-1000 -1000 -1000 -1000 -1000 -1000 -1000 -1000 -1000 
-1000 -1000 -1000 -1000 -1000 -1000 -1000 -1000 -1000 
-1000 -1000 -1000 -1000 -1000 -1000 -1000 -1000 -1000 
-1000 -1000 -1000 -1000 -1000 -1000 -1000 -1000 -1000 
-1000 -1000 -1000 -1000 -1000 -1000 -1000 -1000 -1000 
-1000 -1000 -1000 -1000 -1000 -1000 -1000 -1000 -1000 
-1000 -1000 -1000 -1000 -1000 -1000 -1000 -1000 -1000 
-1000 -1000 -1000 -1000 -1000 -1000 -1000 -1000 -1000 
-1000 -1000 -1000 -1000 -1000 -1000 -1000 -1000 -1000 
-1000 -1000 -1000 -1000 -1000 -1000 -1000 -1000 -1000 
-1000 -1000 -1000 -1000 -1000 -1000 -1000 -1000 -1000 
-1000 -1000 -1000 -1000 -1000 -1000 -1000 -1000 -1000 
-1000 -1000 -1000 -1000 -1000 -1000 -1000 -1000 -1000 
-1000 -1000 -1000 -1000 -1000 -1000 -1000 -1000 -1000 
-1000 -1000 -1000 -1000 -1000 -1000 -1000 -1000 -1000 
-1000 -1000 -1000 -1000 -1000 -1000 -1000 -1000 -1000 
-1000 -1000 -1000 -1000 -1000 -1000 -1000 -1000 -1000 
-1000 -1000 -1000 -1000 -1000 -1000 -1000 -1000 -1000 
-1000 -1000 -1000 -1000 -1000 -1000 -1000 -1000 -1000 
-1000 -1000 -1000 -1000 -1000 -1000 -1000 -1000 -1000 
-1000 -1000 -1000 -1000 -1000 -1000 -1000 -1000 -1000 
-1000 -1000 -1000 -1000 -1000 -1000 -1000 -1000 -1000 
-1000 -1000 -1000 -1000 -1000 -1000 -1000 -1000 -1000 
-1000 -1000 -1000 -1000 -1000 -1000 -1000 -1000 -1000 
-1000 -1000 -1000 -1000 -1000 -1000 -1000 -1000 -1000 
-1000 -1000 -1000 -1000 -1000 -1000 -1000 -1000 -1000 
-1000 -1000 -1000 -1000 -1000 -1000 -1000 -1000 -1000 
-1000 -1000 -1000 -1000 -1000 -1000 -1000 -1000 -1000 
-1000 -1000 -1000 -1000 -1000 -1000 -1000 -1000 -1000 
-1000 -1000 -1000 -1000 -1000 -1000 -1000 -1000 -1000 
-1000 -1000 -1000 -1000 -1000 -1000 -1000 -1000 -1000 
-1000 -1000 -1000 -1000 -1000 -1000 -1000 -1000 -1000 
-1000 -1000 -1000 -1000 -1000 -1000 -1000 -1000 -1000 
-1000 -1000 -1000 -1000 -1000 -1000 -1000 -1000 -1000 
-1000 -1000 -1000 -1000 -1000 -1000 -1000 -1000 -1000 
-1000 -1000 -1000 -1000 -1000 -1000 -1000 -1000 -1000 
-1000 -1000 -1000 -1000 -1000 -1000 -1000 -1000 -1000 
-1000 -1000 -1000 -1000 -1000 -1000 -1000 -1000 -1000 
-1000 -1000 -1000 -1000 -1000 -1000 -1000 -1000 -1000 
-1000 -1000 -1000 -1000 -1000 -1000 -1000 -1000 -1000 
-1000 -1000 -1000 -1000 -1000 -1000 -1000 -1000 -1000 
-1000 -1000 -1000 -1000 -1000 -1000 -1000 -1000 -1000 
-1000 -1000 -1000 -1000 -1000 -1000 -1000 -1000 -1000 
-1000 -1000 -1000 -1000 -1000 -1000 -1000 -1000 -1000 
-1000 -1000 -1000 -1000 -1000 -1000 -1000 -1000 -1000 
-1000 -1000 -1000 -1000 -1000 -1000 -1000 -1000 -1000 
-1000 -1000 -1000 -1000 -1000 -1000 -1000 -1000 -1000 
-1000 -1000 -1000 -1000 -1000 -1000 -1000 -1000 -1000 
-1000 -1000 -1000 -1000 -1000 -1000 -1000 -1000 -1000 
-1000 -1000 -1000 -1000 -1000 -1000 -1000 -1000 -1000 
-1000 -1000 -1000 -1000 -1000 -1000 -1000 -1000 -1000 
-1000 -1000 -1000 -1000 -1000 -1000 -1000 -1000 -1000 
-1000 -1000 -1000 -1000 -1000 -1000 -1000 -1000 -1000 
-1000 -1000 -1000 -1000 -1000 -1000 -1000 -1000 -1000 
-1000 -1000 -1000 -1000 -1000 -1000 -1000 -1000 -1000 
-1000 -1000 -1000 -1000 -1000 -1000 -1000 -1000 -1000 
-1000 -1000 -1000 -1000 -1000 -1000 -1000 -1000 -1000 
-1000 -1000 -1000 -1000 -1000 -1000 -1000 -1000 -1000 
-1000 -1000 -1000 -1000 -1000 -1000 -1000 -1000 -1000 
-1000 -1000 -1000 -1000 -1000 -1000 -1000 -1000 -1000 
-1000 -1000 -1000 -1000 -1000 -1000 -1000 -1000 -1000 
-1000 -1000 -1000 -1000 -1000 -1000 -1000 -1000 -1000 
-1000 -1000 -1000 -1000 -1000 -1000 -1000 -1000 -1000 
-1000 -1000 -1000 -1000 -1000 -1000 -1000 -1000 -1000 
-1000 -1000 -1000 -1000 -1000 -1000 -1000 -1000 -1000 
-1000 -1000 -1000 -1000 -1000 -1000 -1000 -1000 -1000 
-1000 -1000 -1000 -1000 -1000 -1000 -1000 -1000 -1000 
-1000 -1000 -1000 -1000 -1000 -1000 -1000 -1000 -1000 
-1000 -1000 -1000 -1000 -1000 -1000 -1000 -1000 -1000 
-1000 -1000 -1000 -1000 -1000 -1000 -1000 -1000 -1000 
-1000 -1000 -1000 -1000 -1000 -1000 -1000 -1000 -1000 
-1000 -1000 -1000 -1000 -1000 -1000 -1000 -1000 -1000 
-1000 -1000 -1000 -1000 -1000 -1000 -1000 -1000 -1000 
-1000 -1000 -1000 -1000 -1000 -1000 -1000 -1000 -1000 
-1000 -1000 -1000 -1000 -1000 -1000 -1000 -1000 -1000 
-1000 -1000 -1000 -1000 -1000 -1000 -1000 -1000 -1000 
-1000 -1000 -1000 -1000 -1000 -1000 -1000 -1000 -1000 
-1000 -1000 -1000 -1000 -1000 -1000 -1000 -1000 -1000 
-1000 -1000 -1000 -1000 -1000 -1000 -1000 -1000 -1000 
-1000 -1000 -1000 -1000 -1000 -1000 -1000 -1000 -1000 
-1000 -1000 -1000 -1000 -1000 -1000 -1000 -1000 -1000 
-1000 -1000 -1000 -1000 -1000 -1000 -1000 -1000 -1000 
-1000 -1000 -1000 -1000 -1000 -1000 -1000 -1000 -1000 
-1000 -1000 -1000 -1000 -1000 -1000 -1000 -1000 -1000 
-1000 -1000 -1000 -1000 -1000 -1000 -1000 -1000 -1000 
-1000 -1000 -1000 -1000 -1000 -1000 -1000 -1000 -1000 
-1000 -1000 -1000 -1000 -1000 -1000 -1000 -1000 -1000 
-1000 -1000 -1000 -1000 -1000 -1000 -1000 -1000 -1000 
-1000 -1000 -1000 -1000 -1000 -1000 -1000 -1000 -1000 
-1000 -1000 -1000 -1000 -1000 -1000 -1000 -1000 -1000 
-1000 -1000 -1000 -1000 -1000 -1000 -1000 -1000 -1000 
-1000 -1000 -1000 -1000 -1000 -1000 -1000 -1000 -1000 
-1000 -1000 -1000 -1000 -1000 -1000 -1000 -1000 -1000 
-1000 -1000 -1000 -1000 -1000 -1000 -1000 -1000 -1000 
-1000 -1000 -1000 -1000 -1000 -1000 -1000 -1000 -1000 
-1000 -1000 -1000 -1000 -1000 -1000 -1000 -1000 -1000 
-1000 -1000 -1000 -1000 -1000 -1000 -1000 -1000 -1000 
-1000 -1000 -1000 -1000 -1000 -1000 -1000 -1000 -1000 
-1000 -1000 -1000 -1000 -1000 -1000 -1000 -1000 -1000 
-1000 -1000 -1000 -1000 -1000 -1000 -1000 -1000 -1000 
-1000 -1000 -1000 -1000 -1000 -1000 -1000 -1000 -1000 
-1000 -1000 -1000 -1000 -1000 -1000 -1000 -1000 -1000 
-1000 -1000 -1000 -1000 -1000 -1000 -1000 -1000 -1000 
-1000 -1000 -1000 -1000 -1000 -1000 -1000 -1000 -1000 
-1000 -1000 -1000 -1000 -1000 -1000 -1000 -1000 -1000 
-1000 -1000 -1000 -1000 -1000 -1000 -1000 -1000 -1000 
-1000 -1000 -1000 -1000 -1000 -1000 -1000 -1000 -1000 
-1000 -1000 -1000 -1000 -1000 -1000 -1000 -1000 -1000 
-1000 -1000 -1000 -1000 -1000 -1000 -1000 -1000 -1000 
-1000 -1000 -1000 -1000 -1000 -1000 -1000 -1000 -1000 
-1000 -1000 -1000 -1000 -1000 -1000 -1000 -1000 -1000 
-1000 -1000 -1000 -1000 -1000 -1000 -1000 -1000 -1000 
-1000 -1000 -1000 -1000 -1000 -1000 -1000 -1000 -1000 
-1000 -1000 -1000 -1000 -1000 -1000 -1000 -1000 -1000 
-1000 -1000 -1000 -1000 -1000 -1000 -1000 -1000 -1000 
-1000 -1000 -1000 -1000 -1000 -1000 -1000 -1000 -1000 
-1000 -1000 -1000 -1000 -1000 -1000 -1000 -1000 -1000 
-1000 -1000 -1000 -1000 -1000 -1000 -1000 -1000 -1000 
-1000 -1000 -1000 -1000 -1000 -1000 -1000 -1000 -1000 
-1000 -1000 -1000 -1000 -1000 -1000 -1000 -1000 -1000 
-1000 -1000 -1000 -1000 -1000 -1000 -1000 -1000 -1000 
-1000 -1000 -1000 -1000 -1000 -1000 -1000 -1000 -1000 
-1000 -1000 -1000 -1000 -1000 -1000 -1000 -1000 -1000 
-1000 -1000 -1000 -1000 -1000 -1000 -1000 -1000 -1000 
-1000 -1000 -1000 -1000 -1000 -1000 -1000 -1000 -1000 
-1000 -1000 -1000 -1000 -1000 -1000 -1000 -1000 -1000 
-1000 -1000 -1000 -1000 -1000 -1000 -1000 -1000 -1000 
-1000 -1000 -1000 -1000 -1000 -1000 -1000 -1000 -1000 
-1000 -1000 -1000 -1000 -1000 -1000 -1000 -1000 -1000 
-1000 -1000 -1000 -1000 -1000 -1000 -1000 -1000 -1000 
-1000 -1000 -1000 -1000 -1000 -1000 -1000 -1000 -1000 
-1000 -1000 -1000 -1000 -1000 -1000 -1000 -1000 -1000 
-1000 -1000 -1000 -1000 -1000 -1000 -1000 -1000 -1000 
-1000 -1000 -1000 -1000 -1000 -1000 -1000 -1000 -1000 
-1000 -1000 -1000 -1000 -1000 -1000 -1000 -1000 -1000 
-1000 -1000 -1000 -1000 -1000 -1000 -1000 -1000 -1000 
-1000 -1000 -1000 -1000 -1000 -1000 -1000 -1000 -1000 
-1000 -1000 -1000 -1000 -1000 -1000 -1000 -1000 -1000 
-1000 -1000 -1000 -1000 -1000 -1000 -1000 -1000 -1000 
-1000 -1000 -1000 -1000 -1000 -1000 -1000 -1000 -1000 
-1000 -1000 -1000 -1000 -1000 -1000 -1000 -1000 -1000 
-1000 -1000 -1000 -1000 -1000 -1000 -1000 -1000 -1000 
-1000 -1000 -1000 -1000 -1000 -1000 -1000 -1000 -1000 
-1000 -1000 -1000 -1000 -1000 -1000 -1000 -1000 -1000 
-1000 -1000 -1000 -1000 -1000 -1000 -1000 -1000 -1000 
-1000 -1000 -1000 -1000 -1000 -1000 -1000 -1000 -1000 
-1000 -1000 -1000 -1000 -1000 -1000 -1000 -1000 -1000 
-1000 -1000 -1000 -1000 -1000 -1000 -1000 -1000 -1000 
-1000 -1000 -1000 -1000 -1000 -1000 -1000 -1000 -1000 
-1000 -1000 -1000 -1000 -1000 -1000 -1000 -1000 -1000 
-1000 -1000 -1000 -1000 -1000 -1000 -1000 -1000 -1000 
-1000 -1000 -1000 -1000 -1000 -1000 -1000 -1000 -1000 
-1000 -1000 -1000 -1000 -1000 -1000 -1000 -1000 -1000 
-1000 -1000 -1000 -1000 -1000 -1000 -1000 -1000 -1000 
-1000 -1000 -1000 -1000 -1000 -1000 -1000 -1000 -1000 