# vtk DataFile Version 3.0
vtk output
ASCII
DATASET POLYDATA
POINTS 17746 float
-71.5347 -4.68924 -4.84799 -70.6213 -5.38421 -4.50631 -70.408 -4.781 -4.50446 
-72.5905 -4.99035 -5.02853 -71.5031 -5.60433 -4.70035 -72.4403 -5.65056 -4.86184 
-69.9091 -3.36429 -4.39839 -68.9703 -3.87742 -4.06586 -68.9659 -3.00017 -4.0482 
-70.9529 -3.83307 -4.73539 -69.6718 -4.36888 -4.29061 -72.1551 -3.75943 -5.09347 
-72.9602 -4.07869 -5.22235 -73.2902 -5.23173 -5.05143 -73.9971 -4.40417 -5.25259 
-75.0774 -4.37648 -5.21043 -74.2543 -5.10071 -5.09441 -75.2907 -4.83199 -5.08152 
-70.1454 -2.15783 -4.4506 -69.0402 -2.10881 -4.04425 -71.222 -2.64266 -4.80432 
-72.3049 -2.90703 -5.11014 -73.3269 -3.10957 -5.32856 -74.3454 -3.32589 -5.38334 
-75.3568 -3.55436 -5.28235 -76.2017 -3.93113 -5.05207 -69.7366 -1.03 -4.28976 
-68.5875 -1.61981 -3.85207 -68.666 -0.897468 -3.88932 -70.9596 -1.10973 -4.66192 
-71.7151 -1.52755 -4.86953 -72.6977 -1.8673 -5.1224 -73.7319 -2.11259 -5.31073 
-74.5443 -2.41831 -5.39047 -75.7454 -2.39221 -5.22042 -76.4128 -2.95525 -5.05171 
-69.3585 0.0748679 -4.16082 -68.2934 -0.375442 -3.72613 -68.5238 0.573972 -3.78325 
-70.4685 0.11083 -4.52019 -71.2486 -0.203885 -4.69563 -72.2613 -0.459716 -4.90455 
-73.2622 -0.795381 -5.09793 -74.0449 -1.20272 -5.24438 -75.4067 -1.24563 -5.20469 
-76.7864 -1.35557 -4.85914 -77.018 -2.13514 -4.78728 -69.6996 1.30422 -4.23145 
-68.8881 1.69328 -3.82096 -70.6719 1.02947 -4.5463 -71.6549 0.801342 -4.74754 
-72.6889 0.590389 -4.87576 -73.8224 0.334835 -4.99895 -74.9931 -0.123231 -5.10535 
-76.3058 -0.116656 -4.99585 -76.8322 -0.560273 -4.8719 -70.1232 2.41466 -4.24819 
-69.3941 2.78662 -3.8201 -71.0673 2.11247 -4.56445 -72.0964 1.81809 -4.73965 
-72.9017 1.4732 -4.82608 -74.2397 1.55337 -4.80523 -75.3725 1.09862 -4.86551 
-76.5189 0.789252 -4.84111 -70.5837 3.41228 -4.17054 -70.0539 3.78376 -3.76377 
-71.4715 3.15588 -4.48165 -72.5508 2.87948 -4.64774 -73.7544 2.49577 -4.67838 
-75.1011 2.54837 -4.54244 -75.8698 2.12369 -4.57879 -76.6539 1.68196 -4.64577 
-71.0098 4.13915 -4.00812 -70.9183 4.52972 -3.70617 -71.8102 4.04707 -4.24176 
-72.8811 3.85885 -4.41218 -74.0085 3.58426 -4.45335 -75.1936 3.35982 -4.36246 
-71.9949 4.74082 -3.87644 -73.1714 4.68458 -4.04088 -74.3332 4.46672 -4.13571 
-75.2374 4.13836 -4.16811 -70.1398 -7.97282 -4.23032 -69.3329 -8.62586 -4.06682 
-69.0855 -7.99508 -4.02252 -71.2579 -8.36958 -4.40071 -70.1458 -8.97335 -4.19824 
-72.346 -8.62075 -4.51105 -71.1864 -9.28388 -4.3201 -73.3789 -8.77832 -4.54992 
-72.2886 -9.43802 -4.39735 -73.2765 -9.38737 -4.43357 -68.2559 -6.47344 -3.8542 
-67.5156 -7.01288 -3.70223 -67.314 -6.28778 -3.649 -69.3845 -7.09644 -4.10198 
-68.295 -7.53891 -3.86629 -70.5662 -7.05138 -4.34919 -71.4737 -7.39674 -4.48672 
-72.5725 -7.67747 -4.62055 -73.6992 -7.9041 -4.71599 -74.0868 -8.93265 -4.52667 
-74.7775 -8.18429 -4.72665 -74.8903 -8.75212 -4.58898 -67.5748 -5.33794 -3.70032 
-66.7465 -5.78052 -3.54167 -66.6026 -5.05309 -3.50588 -68.6082 -5.64014 -3.94274 
-69.2046 -6.18526 -4.08027 -70.3339 -6.19614 -4.34986 -71.7358 -6.38436 -4.61025 
-72.8973 -6.6838 -4.72096 -74.0903 -6.87877 -4.83098 -75.2683 -7.12133 -4.91809 
-75.73 -8.27532 -4.73769 -76.4615 -7.42407 -4.92663 -77.6348 -7.39861 -4.85731 
-76.7803 -8.12618 -4.75851 -77.9991 -7.88919 -4.58875 -66.9287 -4.15011 -3.51636 
-66.0542 -4.53967 -3.37701 -65.9652 -3.84654 -3.27991 -67.7435 -4.49282 -3.71894 
-68.5622 -4.71312 -3.93555 -69.5891 -5.36215 -4.20748 -73.1834 -5.83192 -4.87904 
-74.5217 -5.76768 -4.94466 -75.7213 -6.00348 -4.97869 -76.8826 -6.26994 -5.01358 
-77.9531 -6.56481 -4.90529 -78.6741 -6.98366 -4.61406 -66.3886 -3.0407 -3.24299 
-65.4921 -3.3284 -3.06595 -65.5589 -2.47349 -2.89576 -67.2891 -3.16979 -3.50595 
-68.0375 -3.72116 -3.76372 -76.1068 -4.92859 -4.99076 -77.3452 -5.02431 -4.91239 
-78.3366 -5.49107 -4.83928 -79.3659 -5.84934 -4.43848 -66.5124 -1.9417 -3.09957 
-65.735 -1.46278 -2.75329 -67.1647 -2.40893 -3.38359 -68.0735 -2.50822 -3.69497 
-77.2599 -4.02361 -4.82062 -78.1067 -4.05392 -4.67256 -78.7268 -4.44163 -4.61652 
-79.4424 -4.84159 -4.43756 -66.6622 -0.885384 -3.02039 -65.939 -0.605878 -2.70503 
-67.6618 -1.36387 -3.479 -77.4134 -2.94763 -4.68444 -78.1104 -3.36744 -4.53805 
-66.6333 0.242807 -2.91744 -65.6475 -0.0252282 -2.58609 -65.9177 0.898929 -2.61289 
-67.5547 -0.144189 -3.36689 -77.6696 -1.44563 -4.48909 -77.9064 -2.01607 -4.41569 
-67.0532 1.4895 -2.95518 -66.3601 2.02625 -2.60441 -67.7694 0.99565 -3.36376 
-77.6919 0.34962 -4.66541 -77.946 -0.637855 -4.47252 -67.5856 2.63801 -2.95141 
-66.9219 3.1471 -2.56871 -68.217 2.14345 -3.37866 -78.0311 1.63845 -4.55681 
-78.8789 0.112748 -4.33443 -79.4283 1.07927 -4.4116 -80.7051 1.11416 -4.23267 
-80.2998 0.225086 -3.9799 -81.3226 0.873958 -3.97339 -68.2798 3.77924 -2.91937 
-67.5635 4.26513 -2.51972 -68.8655 3.26919 -3.36444 -76.3417 3.09333 -4.30045 
-77.4878 2.63223 -4.37907 -78.8495 2.65446 -4.38897 -79.7171 2.24893 -4.4253 
-80.7854 1.9109 -4.32768 -81.6548 1.58926 -4.08287 -69.0328 4.92223 -2.84747 
-68.2341 5.3754 -2.45952 -69.9226 4.48152 -3.31984 -76.5969 4.15081 -4.03949 
-77.8098 3.75168 -4.10971 -78.9925 3.50971 -4.21914 -80.1408 3.28801 -4.3009 
-81.1441 2.93112 -4.27909 -82.0105 2.51789 -4.09986 -69.7116 6.01829 -2.74711 
-68.9155 6.43445 -2.38604 -70.7112 5.67233 -3.1127 -71.8857 5.38675 -3.4693 
-73.4393 5.43865 -3.66245 -74.7247 5.29307 -3.7805 -76.012 4.98218 -3.85773 
-77.3828 5.04538 -3.80048 -78.2167 4.74022 -3.89136 -79.3035 4.50254 -4.01832 
-80.462 4.31045 -4.14638 -81.7275 4.07677 -4.16623 -82.4104 3.48704 -4.06407 
-70.2631 6.9926 -2.62772 -69.5561 7.23097 -2.33166 -71.3233 6.75292 -2.96991 
-72.5283 6.48025 -3.22916 -73.8206 6.29179 -3.39478 -75.1079 6.14571 -3.50449 
-76.323 5.95736 -3.5874 -77.5109 5.80009 -3.64025 -78.6016 5.65277 -3.70632 
-79.6374 5.47539 -3.82954 -80.7327 5.32003 -3.98172 -81.8876 5.16194 -4.07605 
-82.8724 4.24398 -4.01734 -83.0827 5.00699 -3.99081 -83.5626 4.58853 -3.85495 
-70.4878 7.68253 -2.47394 -71.1047 8.42085 -2.47419 -71.7461 7.83419 -2.80764 
-73.0539 7.51968 -3.10865 -74.3134 7.25846 -3.24957 -75.537 7.04861 -3.33083 
-76.7027 6.86529 -3.39989 -77.8193 6.69829 -3.46725 -78.8972 6.5525 -3.54432 
-79.9465 6.42005 -3.65651 -81.0014 6.29617 -3.80795 -82.0843 6.16216 -3.93888 
-83.1659 5.97849 -3.92136 -83.9999 5.06085 -3.71417 -84.1135 5.72055 -3.65775 
-84.7103 5.26027 -3.18627 -72.4985 8.91151 -2.77015 -71.7156 9.32344 -2.4583 
-73.5454 8.54671 -3.0311 -74.7637 8.243 -3.16722 -75.9582 7.99042 -3.22358 
-77.0883 7.7842 -3.26834 -78.1619 7.6137 -3.32516 -79.2019 7.47197 -3.40072 
-80.2272 7.35538 -3.50699 -81.2571 7.25308 -3.64817 -82.3019 7.13645 -3.7798 
-83.3434 6.94702 -3.78083 -84.2999 6.61373 -3.516 -85.0224 6.08696 -2.98778 
-72.9535 9.80166 -2.69062 -72.2606 10.0317 -2.44359 -73.9815 9.54523 -2.94916 
-75.1562 9.2256 -3.09504 -76.329 8.94342 -3.14343 -77.4379 8.71528 -3.16991 
-78.484 8.53698 -3.21415 -79.4923 8.39901 -3.28584 -80.4883 8.29243 -3.38964 
-81.4908 8.20577 -3.52359 -82.5106 8.10787 -3.64602 -83.5359 7.92966 -3.63987 
-84.5003 7.57646 -3.35225 -85.2863 6.9802 -2.7425 -73.0809 10.4443 -2.56246 
-73.502 11.1935 -2.53775 -74.231 10.5954 -2.80158 -75.4836 10.2205 -3.00268 
-76.6467 9.90725 -3.06779 -77.7399 9.65973 -3.09229 -78.7677 9.47231 -3.13189 
-79.7522 9.33595 -3.20253 -80.7219 9.23856 -3.30616 -81.6951 9.16202 -3.43731 
-82.6867 9.08322 -3.55501 -83.7027 8.93703 -3.54612 -84.6875 8.59922 -3.24383 
-85.5177 7.97531 -2.56775 -74.7477 11.8438 -2.74865 -73.7368 12.0306 -2.52568 
-75.8079 11.2691 -2.9176 -76.9233 10.9007 -2.99634 -77.9971 10.6311 -3.0319 
-79.0104 10.4328 -3.07668 -79.9755 10.2898 -3.14958 -80.9196 10.1956 -3.24825 
-81.8699 10.1268 -3.36747 -82.8115 10.0391 -3.48351 -83.7903 9.94635 -3.4899 
-84.8216 9.69947 -3.21384 -85.7348 9.08832 -2.514 -74.3534 12.9199 -2.64394 
-73.309 12.5902 -2.43971 -73.4385 13.5019 -2.46818 -75.405 12.7963 -2.8119 
-76.1619 12.3227 -2.88452 -77.1732 11.9299 -2.94403 -78.2109 11.6426 -2.98615 
-79.2126 11.4324 -3.03939 -80.1696 11.2727 -3.11402 -81.073 11.1443 -3.20187 
-81.9926 11.0897 -3.28133 -82.9467 11.0062 -3.36393 -83.7217 10.7692 -3.42541 
-84.7806 10.8866 -3.21863 -85.9313 10.3889 -2.6159 -74.4812 14.0778 -2.62728 
-73.6865 14.5596 -2.45221 -75.4212 13.6937 -2.77618 -76.3941 13.3351 -2.86476 
-77.3656 12.9739 -2.90383 -78.3715 12.6872 -2.93324 -79.3665 12.4668 -2.98358 
-80.329 12.29 -3.0567 -81.2482 12.1165 -3.12583 -81.9739 11.8867 -3.18766 
-83.0103 12.0842 -3.13917 -84.1001 11.7322 -3.19539 -85.0987 11.8467 -3.04962 
-85.7019 11.4453 -2.88535 -74.6246 15.0528 -2.55222 -74.0208 15.3569 -2.40632 
-75.5048 14.7318 -2.69337 -76.496 14.3556 -2.79064 -77.4703 13.9905 -2.83583 
-78.4469 13.7214 -2.83096 -79.4492 13.511 -2.83797 -80.4245 13.3056 -2.90239 
-81.3783 13.1219 -2.96312 -82.3907 12.8741 -2.97881 -83.3876 13.0425 -2.84597 
-84.1075 12.7518 -2.90048 -84.8744 12.4727 -2.93341 -74.6599 15.7505 -2.42572 
-75.086 16.4059 -2.2712 -75.5452 15.7639 -2.49511 -76.5717 15.3698 -2.60792 
-77.5751 14.9711 -2.65714 -78.3684 14.567 -2.69138 -79.4222 14.5922 -2.53283 
-80.4566 14.2651 -2.58451 -81.398 14.0658 -2.66317 -82.3092 13.8819 -2.69875 
-83.2229 13.7913 -2.6485 -75.8869 16.5406 -2.25266 -75.6847 17.0209 -2.06083 
-76.6385 16.2815 -2.31052 -77.6497 15.919 -2.33659 -78.7333 15.4426 -2.33193 
-79.7485 15.4398 -2.11445 -80.5002 15.1476 -2.1602 -81.4035 14.9216 -2.25882 
-82.3018 14.7521 -2.3676 -83.0361 14.5276 -2.44101 -76.5861 17.0574 -2.00666 
-77.6197 16.8091 -1.983 -78.6603 16.4269 -1.9617 -79.4898 16.0458 -1.929 
-70.9077 -12.7178 -4.48752 -70.253 -13.3679 -4.25863 -69.9034 -12.7828 -4.26206 
-72.006 -13.0595 -4.65088 -71.1176 -13.6367 -4.38273 -72.9635 -13.3012 -4.70386 
-72.1465 -13.8448 -4.4911 -72.9626 -13.8943 -4.54246 -29.5979 -0.69935 -5.5287 
-28.8355 -1.43092 -5.13151 -28.5947 -0.675969 -5.3516 -30.6495 -1.27759 -5.48268 
[...]
POINT_DATA 17746
SCALARS scalars float
LOOKUP_TABLE default
-1000 -1000 -1000 -1000 -1000 -1000 -1000 -1000 -1000 
-1000 -1000 -1000 -1000 -1000 -1000 -1000 -1000 -1000 
-1000 -1000 -1000 -1000 -1000 -1000 -1000 -1000 -1000 
-1000 -1000 -1000 -1000 -1000 -1000 -1000 -1000 -1000 
-1000 -1000 -1000 -1000 -1000 -1000 -1000 -1000 -1000 
-1000 -1000 -1000 -1000 -1000 -1000 -1000 -1000 -1000 
-1000 -1000 -1000 -1000 -1000 -1000 -1000 -1000 -1000 
-1000 -1000 -1000 -1000 -1000 -1000 -1000 -1000 -1000 
-1000 -1000 -1000 -1000 -1000 -1000 -1000 -1000 -1000 
-1000 -1000 -1000 -1000 -1000 -1000 -1000 -1000 -1000 
-1000 -1000 -1000 -1000 -1000 -1000 -1000 -1000 -1000 
-1000 -1000 -1000 -1000 -1000 -1000 -1000 -1000 -1000 
-1000 -1000 -1000 -1000 -1000 -1000 -1000 -1000 -1000 
-1000 -1000 -1000 -1000 -1000 -1000 -1000 -1000 -1000 
-1000 -1000 -1000 -1000 -1000 -1000 -1000 -1000 -1000 
-1000 -1000 -1000 -1000 -1000 -1000 -1000 -1000 -1000 
-1000 -1000 -1000 -1000 -1000 -1000 -1000 -1000 -1000 
-1000 -1000 -1000 -1000 -1000 -1000 -1000 -1000 -1000 
-1000 -1000 -1000 -1000 -1000 -1000 -1000 -1000 -1000 
-1000 -1000 -1000 -1000 -1000 -1000 -1000 -1000 -1000 
-1000 -1000 -1000 -1000 -1000 -1000 -1000 -1000 -1000 
-1000 -1000 -1000 -1000 -1000 -1000 -1000 -1000 -1000 
-1000 -1000 -1000 -1000 -1000 -1000 -1000 -1000 -1000 
-1000 -1000 -1000 -1000 -1000 -1000 -1000 -1000 -1000 
-1000 -1000 -1000 -1000 -1000 -1000 -1000 -1000 -1000 
-1000 -1000 -1000 -1000 -1000 -1000 -1000 -1000 -1000 
-1000 -1000 -1000 -1000 -1000 -1000 -1000 -1000 -1000 
-1000 -1000 -1000 -1000 -1000 -1000 -1000 -1000 -1000 
-1000 -1000 -1000 -1000 -1000 -1000 -1000 -1000 -1000 
-1000 -1000 -1000 -1000 -1000 -1000 -1000 -1000 -1000 
-1000 -1000 -1000 -1000 -1000 -1000 -1000 -1000 -1000 
-1000 -1000 -1000 -1000 -1000 -1000 -1000 -1000 -1000 
-1000 -1000 -1000 -1000 -1000 -1000 -1000 -1000 -1000 
-1000 -1000 -1000 -1000 -1000 -1000 -1000 -1000 -1000 
-1000 -1000 -1000 -1000 -1000 -1000 -1000 -1000 -1000 
-1000 -1000 -1000 -1000 -1000 -1000 -1000 -1000 -1000 
-1000 -1000 -1000 -1000 -1000 -1000 -1000 -1000 -1000 
-1000 -1000 -1000 -1000 -1000 -1000 -1000 -1000 -1000 
-1000 -1000 -1000 -1000 -1000 -1000 -1000 -1000 -1000 
-1000 -1000 -1000 -1000 -1000 -1000 -1000 -1000 -1000 
-1000 -1000 -1000 -1000 -1000 -1000 -1000 -1000 -1000 
-1000 -1000 -1000 -1000 -1000 -1000 -1000 -1000 -1000 
-1000 -1000 -1000 -1000 -1000 -1000 -1000 -1000 -1000 
-1000 -1000 -1000 -1000 -1000 -1000 -1000 -1000 -1000 
-1000 -1000 -1000 -1000 -1000 -1000 -1000 -1000 -1000 
-1000 -1000 -1000 -1000 -1000 -1000 -1000 -1000 -1000 
-1000 -1000 -1000 -1000 -1000 -1000 -1000 -1000 -1000 
-1000 -1000 -1000 -1000 -1000 -1000 -1000 -1000 -1000 
-1000 -1000 -1000 -1000 -1000 -1000 -1000 -1000 -1000 
-1000 -1000 -1000 -1000 -1000 -1000 -1000 -1000 -1000 
-1000 -1000 -1000 -1000 -1000 -1000 -1000 -1000 -1000 
-1000 -1000 -1000 -1000 -1000 -1000 -1000 -1000 -1000 
-1000 -1000 -1000 -1000 -1000 -1000 -1000 -1000 -1000 
-1000 -1000 -1000 -1000 -1000 -1000 -1000 -1000 -1000 
-1000 -1000 -1000 -1000 -1000 -1000 -1000 -1000 -1000 
-1000 -1000 -1000 -1000 -1000 -1000 -1000 -1000 -1000 
-1000 -1000 -1000 -1000 -1000 -1000 -1000 -1000 -1000 
-1000 -1000 -1000 -1000 -1000 -1000 -1000 -1000 -1000 
-1000 -1000 -1000 -1000 -1000 -1000 -1000 -1000 -1000 
-1000 -1000 -1000 -1000 -1000 -1000 -1000 -1000 -1000 
-1000 -1000 -1000 -1000 -1000 -1000 -1000 -1000 -1000 
-1000 -1000 -1000 -1000 -1000 -1000 -1000 -1000 -1000 
-1000 -1000 -1000 -1000 -1000 -1000 -1000 -1000 -1000 
-1000 -1000 -1000 -1000 -1000 -1000 -1000 -1000 -1000 
-1000 -1000 -1000 -1000 -1000 -1000 -1000 -1000 -1000 
-1000 -1000 -1000 -1000 -1000 -1000 -1000 -1000 -1000 
-1000 -1000 -1000 -1000 -1000 -1000 -1000 -1000 -1000 
-1000 -1000 -1000 -1000 -1000 -1000 -1000 -1000 -1000 
-1000 -1000 -1000 -1000 -1000 -1000 -1000 -1000 -1000 
-1000 -1000 -1000 -1000 -1000 -1000 -1000 -1000 -1000 
-1000 -1000 -1000 -1000 -1000 -1000 -1000 -1000 -1000 
-1000 -1000 -1000 -1000 -1000 -1000 -1000 -1000 -1000 
-1000 -1000 -1000 -1000 -1000 -1000 -1000 -1000 -1000 
-1000 -1000 -1000 -1000 -1000 -1000 -1000 -1000 -1000 
-1000 -1000 -1000 -1000 -1000 -1000 -1000 -1000 -1000 
-1000 -1000 -1000 -1000 -1000 -1000 -1000 -1000 -1000 
-1000 -1000 -1000 -1000 -1000 -1000 -1000 -1000 -1000 
-1000 -1000 -1000 -1000 -1000 -1000 -1000 -1000 -1000 
-1000 -1000 -1000 -1000 -1000 -1000 -1000 -1000 -1000 
-1000 -1000 -1000 -1000 -1000 -1000 -1000 -1000 -1000 
-1000 -1000 -1000 -1000 -1000 -1000 -1000 -1000 -1000 
-1000 -1000 -1000 -1000 -1000 -1000 -1000 -1000 -1000 
-1000 -1000 -1000 -1000 -1000 -1000 -1000 -1000 -1000 
-1000 -1000 -1000 -1000 -1000 -1000 -1000 -1000 -1000 
-1000 -1000 -1000 -1000 -1000 -1000 -1000 -1000 -1000 
-1000 -1000 -1000 -1000 -1000 -1000 -1000 -1000 -1000 
-1000 -1000 -1000 -1000 -1000 -1000 -1000 -1000 -1000 
-1000 -1000 -1000 -1000 -1000 -1000 -1000 -1000 -1000 
-1000 -1000 -1000 -1000 -1000 -1000 -1000 -1000 -1000 
-1000 -1000 -1000 -1000 -1000 -1000 -1000 -1000 -1000 
-1000 -1000 -1000 -1000 -1000 -1000 -1000 -1000 -1000 
-1000 -1000 -1000 -1000 -1000 -1000 -1000 -1000 -1000 
-1000 -1000 -1000 -1000 -1000 -1000 -1000 -1000 -1000 
-1000 -1000 -1000 -1000 -1000 -1000 -1000 -1000 -1000 
-1000 -1000 -1000 -1000 -1000 -1000 -1000 -1000 -1000 
-1000 -1000 -1000 -1000 -1000 -1000 -1000 -1000 -1000 
-1000 -1000 -1000 -1000 -1000 -1000 -1000 -1000 -1000 
-1000 -1000 -1000 -1000 -1000 -1000 -1000 -1000 -1000 
-1000 -1000 -1000 -1000 -1000 -1000 -1000 -1000 -1000 
-1000 -1000 -1000 -1000 -1000 -1000 -1000 -1000 -1000 
-1000 -1000 -1000 -1000 -1000 -1000 -1000 -1000 -1000 
-1000 -1000 -1000 -1000 -1000 -1000 -1000 -1000 -1000 
-1000 -1000 -1000 -1000 -1000 -1000 -1000 -1000 -1000 
-1000 -1000 -1000 -1000 -1000 -1000 -1000 -1000 -1000 
-1000 -1000 -1000 -1000 -1000 -1000 -1000 -1000 -1000 
-1000 -1000 -1000 -1000 -1000 -1000 -1000 -1000 -1000 
-1000 -1000 -1000 -1000 -1000 -1000 -1000 -1000 -1000 
-1000 -1000 -1000 -1000 -1000 -1000 -1000 -1000 -1000 
-1000 -1000 -1000 -1000 -1000 -1000 -1000 -1000 -1000 
-1000 -1000 -1000 -1000 -1000 -1000 -1000 -1000 -1000 
-1000 -1000 -1000 -1000 -1000 -1000 -1000 -1000 -1000 
-1000 -1000 -1000 -1000 -1000 -1000 -1000 -1000 -1000 
-1000 -1000 -1000 -1000 -1000 -1000 -1000 -1000 -1000 
-1000 -1000 -1000 -1000 -1000 -1000 -1000 -1000 -1000 
-1000 -1000 -1000 -1000 -1000 -1000 -1000 -1000 -1000 
-1000 -1000 -1000 -1000 -1000 -1000 -1000 -1000 -1000 
-1000 -1000 -1000 -1000 -1000 -1000 -1000 -1000 -1000 
-1000 -1000 -1000 -1000 -1000 -1000 -1000 -1000 -1000 
-1000 -1000 -1000 -1000 -1000 -1000 -1000 -1000 -1000 
-1000 -1000 -1000 -1000 -1000 -1000 -1000 -1000 -1000 
-1000 -1000 -1000 -1000 -1000 -1000 -1000 -1000 -1000 
-1000 -1000 -1000 -1000 -1000 -1000 -1000 -1000 -1000 
-1000 -1000 -1000 -1000 -1000 -1000 -1000 -1000 -1000 
-1000 -1000 -1000 -1000 -1000 -1000 -1000 -1000 -1000 
-1000 -1000 -1000 -1000 -1000 -1000 -1000 -1000 -1000 
-1000 -1000 -1000 -1000 -1000 -1000 -1000 -1000 -1000 
-1000 -1000 -1000 -1000 -1000 -1000 -1000 -1000 -1000 
-1000 -1000 -1000 -1000 -1000 -1000 -1000 -1000 -1000 
-1000 -1000 -1000 -1000 -1000 -1000 -1000 -1000 -1000 
-1000 -1000 -1000 -1000 -1000 -1000 -1000 -1000 -1000 
-1000 -1000 -1000 -1000 -1000 -1000 -1000 -1000 -1000 
-1000 -1000 -1000 -1000 -1000 -1000 -1000 -1000 -1000 
-1000 -1000 -1000 -1000 -1000 -1000 -1000 -1000 -1000 
-1000 -1000 -1000 -1000 -1000 -1000 -1000 -1000 -1000 
-1000 -1000 -1000 -1000 -1000 -1000 -1000 -1000 -1000 
-1000 -1000 -1000 -1000 -1000 -1000 -1000 -1000 -1000 
-1000 -1000 -1000 -1000 -1000 -1000 -1000 -1000 -1000 
-1000 -1000 -1000 -1000 -1000 -1000 -1000 -1000 -1000 
-1000 -1000 -1000 -1000 -1000 -1000 -1000 -1000 -1000 
-1000 -1000 -1000 -1000 -1000 -1000 -1000 -1000 -1000 
-1000 -1000 -1000 -1000 -1000 -1000 -1000 -1000 -1000 
-1000 -1000 -1000 -1000 -1000 -1000 -1000 -1000 -1000 
-1000 -1000 -1000 -1000 -1000 -1000 -1000 -1000 -1000 
-1000 -1000 -1000 -1000 -1000 -1000 -1000 -1000 -1000 
-1000 -1000 -1000 -1000 -1000 -1000 -1000 -1000 -1000 
-1000 -1000 -1000 -1000 -1000 -1000 -1000 -1000 -1000 
-1000 -1000 -1000 -1000 -1000 -1000 -1000 -1000 -1000 
-1000 -1000 -1000 -1000 -1000 -1000 -1000 -1000 -1000 
-1000 -1000 -1000 -1000 -1000 -1000 -1000 -1000 -1000 
-1000 -1000 -1000 -1000 -1000 -1000 -1000 -1000 -1000 
-1000 -1000 -1000 -1000 -1000 -1000 -1000 -1000 -1000 
-1000 -1000 -1000 -1000 -1000 -1000 -1000 -1000 -1000 
-1000 -1000 -1000 -1000 -1000 -1000 -1000 -1000 -1000 
-1000 -1000 -1000 -1000 -1000 -1000 -1000 -1000 -1000 
-1000 -1000 -1000 -1000 -1000 -1000 -1000 -1000 -1000 
-1000 -1000 -1000 -1000 -1000 -1000 -1000 -1000 -1000 
-1000 -1000 -1000 -1000 -1000 -1000 -1000 -1000 -1000 
-1000 -1000 -1000 -1000 -1000 -1000 -1000 -1000 -1000 
-1000 -1000 -1000 -1000 -1000 -1000 -1000 -1000 -1000 
-1000 -1000 -1000 -1000 -1000 -1000 -1000 -1000 -1000 
-1000 -1000 -1000 -1000 -1000 -1000 -1000 -1000 -1000 
-1000 -1000 -1000 -1000 -1000 -1000 -1000 -1000 -1000 
-1000 -1000 -1000 -1000 -1000 -1000 -1000 -1000 -1000 
-1000 -1000 -1000 -1000 -1000 -1000 -1000 -1000 -1000 
-1000 -1000 -1000 -1000 -1000 -1000 -1000 -1000 -1000 
-1000 -1000 -1000 -1000 -1000 -1000 -1000 -1000 -1000 
-1000 -1000 -1000 -1000 -1000 -1000 -1000 -1000 -1000 
-1000 -1000 -1000 -1000 -1000 -1000 -1000 -1000 -1000 
-1000 -1000 -1000 -1000 -1000 -1000 -1000 -1000 -1000 
-1000 -1000 -1000 -1000 -1000 -1000 -1000 -1000 -1000 
-1000 -1000 -1000 -1000 -1000 -1000 -1000 -1000 -1000 
-1000 -1000 -1000 -1000 -1000 -1000 -1000 -1000 -1000 
-1000 -1000 -1000 -1000 -1000 -1000 -1000 -1000 -1000 
-1000 -1000 -1000 -1000 -1000 -1000 -1000 -1000 -1000 
-1000 -1000 -1000 -1000 -1000 -1000 -1000 -1000 -1000 
-1000 -1000 -1000 -1000 -1000 -1000 -1000 -1000 -1000 
-1000 -1000 -1000 -1000 -1000 -1000 -1000 -1000 -1000 
-1000 -1000 -1000 -1000 -1000 -1000 -1000 -1000 -1000 
-1000 -1000 -1000 -1000 -1000 -1000 -1000 -1000 -1000 
-1000 -1000 -1000 -1000 -1000 -1000 -1000 -1000 -1000 
-1000 -1000 -1000 -1000 -1000 -1000 -1000 -1000 -1000 
-1000 -1000 -1000 -1000 -1000 -1000 -1000 -1000 -1000 
-1000 -1000 -1000 -1000 -1000 -1000 -1000 -1000 -1000 
-1000 -1000 -1000 -1000 -1000 -1000 -1000 -1000 -1000 
-1000 -1000 -1000 -1000 -1000 -1000 -1000 -1000 -1000 
-1000 -1000 -1000 -1000 -1000 -1000 -1000 -1000 -1000 
-1000 -1000 -1000 -1000 -1000 -1000 -1000 -1000 -1000 
-1000 -1000 -1000 -1000 -1000 -1000 -1000 -1000 -1000 
-1000 -1000 -1000 -1000 -1000 -1000 -1000 -1000 -1000 
-1000 -1000 -1000 -1000 -1000 -1000 -1000 -1000 -1000 
-1000 -1000 -1000 -1000 -1000 -1000 -1000 -1000 -1000 
-1000 -1000 -1000 -1000 -1000 -1000 -1000 -1000 -1000 
-1000 -1000 -1000 -1000 -1000 -1000 -1000 -1000 -1000 
-1000 -1000 -1000 -1000 -1000 -1000 -1000 -1000 -1000 
-1000 -1000 -1000 -1000 -1000 -1000 -1000 -1000 -1000 
-1000 -1000 -1000 -1000 -1000 -1000 -1000 -1000 -1000 
-1000 -1000 -1000 -1000 -1000 -1000 -1000 -1000 -1000 
-1000 -1000 -1000 -1000 -1000 -1000 -1000 -1000 -1000 
-1000 -1000 -1000 -1000 -1000 -1000 -1000 -1000 -1000 
-1000 -1000 -1000 -1000 -1000 -1000 -1000 -1000 -1000 
-1000 -1000 -1000 -1000 -1000 -1000 -1000 -1000 -1000 
-1000 -1000 -1000 -1000 -1000 -1000 -1000 -1000 -1000 
-1000 -1000 -1000 -1000 -1000 -1000 -1000 -1000 -1000 
-1000 -1000 -1000 -1000 -1000 -1000 -1000 -1000 -1000 
-1000 -1000 -1000 -1000 -1000 -1000 -1000 -1000 -1000 
-1000 -1000 -1000 -1000 -1000 -1000 -1000 -1000 -1000 
-1000 -1000 -1000 -1000 -1000 -1000 -1000 -1000 -1000 
-1000 -1000 -1000 -1000 -1000 -1000 -1000 -1000 -1000 
-1000 -1000 -1000 -1000 -1000 -1000 -1000 -1000 -1000 
-1000 -1000 -1000 -1000 -1000 -1000 -1000 -1000 -1000 
-1000 -1000 -1000 -1000 -1000 -1000 -1000 -1000 -1000 
-1000 -1000 -1000 -1000 -1000 -1000 -1000 -1000 -1000 
-1000 -1000 -1000 -1000 -1000 -1000 -1000 -1000 -1000 
-1000 -1000 -1000 -1000 -1000 -1000 -1000 -1000 -1000 
-1000 -1000 -1000 -1000 -1000 -1000 -1000 -1000 -1000 
-1000 -1000 -1000 -1000 -1000 -1000 -1000 -1000 -1000 
-1000 -1000 -1000 -1000 -1000 -1000 -1000 -1000 -1000 
-1000 -1000 -1000 -1000 -1000 -1000 -1000 -1000 -1000 
-1000 -1000 -1000 -1000 -1000 -1000 -1000 -1000 -1000 
-1000 -1000 -1000 -1000 -1000 -1000 -1000 -1000 -1000 
-1000 -1000 -1000 -1000 -1000 -1000 -1000 -1000 -1000 
-1000 -1000 -1000 -1000 -1000 -1000 -1000 -1000 -1000 
-1000 -1000 -1000 -1000 -1000 -1000 -1000 -1000 -1000 
-1000 -1000 -1000 -1000 -1000 -1000 -1000 -1000 -1000 
-1000 -1000 -1000 -1000 -1000 -1000 -1000 -1000 -1000 
-1000 -1000 -1000 -1000 -1000 -1000 -1000 -1000 -1000 
-1000 -1000 -1000 -1000 -1000 -1000 -1000 -1000 -1000 
-1000 -1000 -1000 -1000 -1000 -1000 -1000 -1000 -1000 
-1000 -1000 -1000 -1000 -1000 -1000 -1000 -1000 -1000 
-1000 -1000 -1000 -1000 -1000 -1000 -1000 -1000 -1000 
-1000 -1000 -1000 -1000 -1000 -1000 -1000 -1000 -1000 
-1000 -1000 -1000 -1000 -1000 -1000 -1000 -1000 -1000 
-1000 -1000 -1000 -1000 -1000 -1000 -1000 -1000 -1000 
-1000 -1000 -1000 -1000 -1000 -1000 -1000 -1000 -1000 
-1000 -1000 -1000 -1000 -1000 -1000 -1000 -1000 -1000 
-1000 -1000 -1000 -1000 -1000 -1000 -1000 -1000 -1000 
-1000 -1000 -1000 -1000 -1000 -1000 -1000 -1000 -1000 
-1000 -1000 -1000 -1000 -1000 -1000 -1000 -1000 -1000 
-1000 -1000 -1000 -1000 -1000 -1000 -1000 -1000 -1000 
-1000 -1000 -1000 -1000 -1000 -1000 -1000 -1000 -1000 
-1000 -1000 -1000 -1000 -1000 -1000 -1000 -1000 -1000 
-1000 -1000 -1000 -1000 -1000 -1000 -1000 -1000 -1000 
-1000 -1000 -1000 -1000 -1000 -1000 -1000 -1000 -1000 
-1000 -1000 -1000 -1000 -1000 -1000 -1000 -1000 -1000 
-1000 -1000 -1000 -1000 -1000 -1000 -1000 -1000 -1000 
-1000 -1000 -1000 -1000 -1000 -1000 -1000 -1000 -1000 
-1000 -1000 -1000 -1000 -1000 -1000 -1000 -1000 -1000 
-1000 -1000 -1000 -1000 -1000 -1000 -1000 -1000 -1000 
-1000 -1000 -1000 -1000 -1000 -1000 -1000 -1000 -1000 
-1000 -1000 -1000 -1000 -1000 -1000 -1000 -1000 -1000 
-1000 -1000 -1000 -1000 -1000 -1000 -1000 -1000 -1000 
-1000 -1000 -1000 -1000 -1000 -1000 -1000 -1000 -1000 
-1000 -1000 -1000 -1000 -1000 -1000 -1000 -1000 -1000 
-1000 -1000 -1000 -1000 -1000 -1000 -1000 -1000 -1000 
-1000 -1000 -1000 -1000 -1000 -1000 -1000 -1000 -1000 
-1000 -1000 -1000 -1000 -1000 -1000 -1000 -1000 -1000 
-1000 -1000 -1000 -1000 -1000 -1000 -1000 -1000 -1000 
-1000 -1000 -1000 -1000 -1000 -1000 -1000 -1000 -1000 
-1000 -1000 -1000 -1000 -1000 -1000 -1000 -1000 -1000 
-1000 -1000 -1000 -1000 -1000 -1000 -1000 -1000 -1000 
-1000 -1000 -1000 -1000 -1000 -1000 -1000 -1000 -1000 
-1000 -1000 -1000 -1000 -1000 -1000 -1000 -1000 -1000 
-1000 -1000 -1000 -1000 -1000 -1000 -1000 -1000 -1000 
-1000 -1000 -1000 -1000 -1000 -1000 -1000 -1000 -1000 
-1000 -1000 -1000 -1000 -1000 -1000 -1000 -1000 -1000 
-1000 -1000 -1000 -1000 -1000 -1000 -1000 -1000 -1000 
-1000 -1000 -1000 -1000 -1000 -1000 -1000 -1000 -1000 
-1000 -1000 -1000 -1000 -1000 -1000 -1000 -1000 -1000 
-1000 -1000 -1000 -1000 -1000 -1000 -1000 -1000 -1000 
-1000 -1000 -1000 -1000 -1000 -1000 -1000 -1000 -1000 
-1000 -1000 -1000 -1000 -1000 -1000 -1000 -1000 -1000 
-1000 -1000 -1000 -1000 -1000 -1000 -1000 -1000 -1000 
-1000 -1000 -1000 -1000 -1000 -1000 -1000 -1000 -1000 
-1000 -1000 -1000 -1000 -1000 -1000 -1000 -1000 -1000 
-1000 -1000 -1000 -1000 -1000 -1000 -1000 -1000 -1000 
-1000 -1000 -1000 -1000 -1000 -1000 -1000 -1000 -1000 
-1000 -1000 -1000 -1000 -1000 -1000 -1000 -1000 -1000 
-1000 -1000 -1000 -1000 -1000 -1000 -1000 -1000 -1000 
-1000 -1000 -1000 -1000 -1000 -1000 -1000 -1000 -1000 
-1000 -1000 -1000 -1000 -1000 -1000 -1000 -1000 -1000 
-1000 -1000 -1000 -1000 -1000 -1000 -1000 -1000 -1000 
-1000 -1000 -1000 -1000 -1000 -1000 -1000 -1000 -1000 
-1000 -1000 -1000 -1000 -1000 -1000 -1000 -1000 -1000 
-1000 -1000 -1000 -1000 -1000 -1000 -1000 -1000 -1000 
-1000 -1000 -1000 -1000 -1000 -1000 -1000 -1000 -1000 
-1000 -1000 -1000 -1000 -1000 -1000 -1000 -1000 -1000 
-1000 -1000 -1000 -1000 -1000 -1000 -1000 -1000 -1000 
-1000 -1000 -1000 -1000 -1000 -1000 -1000 -1000 -1000 
-1000 -1000 -1000 -1000 -1000 -1000 -1000 -1000 -1000 
-1000 -1000 -1000 -1000 -1000 -1000 -1000 -1000 -1000 
-1000 -1000 -1000 -1000 -1000 -1000 -1000 -1000 -1000 
-1000 -1000 -1000 -1000 -1000 -1000 -1000 -1000 -1000 
-1000 -1000 -1000 -1000 -1000 -1000 -1000 -1000 -1000 
-1000 -1000 -1000 -1000 -1000 -1000 -1000 -1000 -1000 
-1000 -1000 -1000 -1000 -1000 -1000 -1000 -1000 -1000 
-1000 -1000 -1000 -1000 -1000 -1000 -1000 -1000 -1000 
-1000 -1000 -1000 -1000 -1000 -1000 -1000 -1000 -1000 
-1000 -1000 -1000 -1000 -1000 -1000 -1000 -1000 -1000 
-1000 -1000 -1000 -1000 -1000 -1000 -1000 -1000 -1000 
-1000 -1000 -1000 -1000 -1000 -1000 -1000 -1000 -1000 
-1000 -1000 -1000 -1000 -1000 -1000 -1000 -1000 -1000 
-1000 -1000 -1000 -1000 -1000 -1000 -1000 -1000 -1000 
-1000 -1000 -1000 -1000 -1000 -1000 -1000 -1000 -1000 
-1000 -1000 -1000 -1000 -1000 -1000 -1000 -1000 -1000 
-1000 -1000 -1000 -1000 -1000 -1000 -1000 -1000 -1000 
-1000 -1000 -1000 -1000 -1000 -1000 -1000 -1000 -1000 
-1000 -1000 -1000 -1000 -1000 -1000 -1000 -1000 -1000 
-1000 -1000 -1000 -1000 -1000 -1000 -1000 -1000 -1000 
-1000 -1000 -1000 -1000 -1000 -1000 -1000 -1000 -1000 
-1000 -1000 -1000 -1000 -1000 -1000 -1000 -1000 -1000 
-1000 -1000 -1000 -1000 -1000 -1000 -1000 -1000 -1000 
-1000 -1000 -1000 -1000 -1000 -1000 -1000 -1000 -1000 
-1000 -1000 -1000 -1000 -1000 -1000 -1000 -1000 -1000 
-1000 -1000 -1000 -1000 -1000 -1000 -1000 -1000 -1000 
-1000 -1000 -1000 -1000 -1000 -1000 -1000 -1000 -1000 
-1000 -1000 -1000 -1000 -1000 -1000 -1000 -1000 -1000 
-1000 -1000 -1000 -1000 -1000 -1000 -1000 -1000 -1000 
-1000 -1000 -1000 -1000 -1000 -1000 -1000 -1000 -1000 
-1000 -1000 -1000 -1000 -1000 -1000 -1000 -1000 -1000 
-1000 -1000 -1000 -1000 -1000 -1000 -1000 -1000 -1000 
-1000 -1000 -1000 -1000 -1000 -1000 -1000 -1000 -1000 
-1000 -1000 -1000 -1000 -1000 -1000 -1000 -1000 -1000 
-1000 -1000 -1000 -1000 -1000 -1000 -1000 -1000 -1000 
-1000 -1000 -1000 -1000 -1000 -1000 -1000 -1000 -1000 
-1000 -1000 -1000 -1000 -1000 -1000 -1000 -1000 -1000 
-1000 -1000 -1000 -1000 -1000 -1000 -1000 -1000 -1000 
-1000 -1000 -1000 -1000 -1000 -1000 -1000 -1000 -1000 
-1000 -1000 -1000 -1000 -1000 -1000 -1000 -1000 -1000 
-1000 -1000 -1000 -1000 -1000 -1000 -1000 -1000 -1000 
-1000 -1000 -1000 -1000 -1000 -1000 -1000 -1000 -1000 
-1000 -1000 -1000 -1000 -1000 -1000 -1000 -1000 -1000 
-1000 -1000 -1000 -1000 -1000 -1000 -1000 -1000 -1000 
-1000 -1000 -1000 -1000 -1000 -1000 -1000 -1000 -1000 
-1000 -1000 -1000 -1000 -1000 -1000 -1000 -1000 -1000 
-1000 -1000 -1000 -1000 -1000 -1000 -1000 -1000 -1000 
-1000 -1000 -1000 -1000 -1000 -1000 -1000 -1000 -1000 
-1000 -1000 -1000 -1000 -1000 -1000 -1000 -1000 -1000 
-1000 -1000 -1000 -1000 -1000 -1000 -1000 -1000 -1000 
-1000 -1000 -1000 -1000 -1000 -1000 -1000 -1000 -1000 
-1000 -1000 -1000 -1000 -1000 -1000 -1000 -1000 -1000 
-1000 -1000 -1000 -1000 -1000 -1000 -1000 -1000 -1000 
-1000 -1000 -1000 -1000 -1000 -1000 -1000 -1000 -1000 
-1000 -1000 -1000 -1000 -1000 -1000 -1000 -1000 -1000 
-1000 -1000 -1000 -1000 -1000 -1000 -1000 -1000 -1000 
-1000 -1000 -1000 -1000 -1000 -1000 -1000 -1000 -1000 
-1000 -1000 -1000 -1000 -1000 -1000 -1000 -1000 -1000 
-1000 -1000 -1000 -1000 -1000 -1000 -1000 -1000 -1000 
-1000 -1000 -1000 -1000 -1000 -1000 -1000 -1000 -1000 
-1000 -1000 -1000 -1000 -1000 -1000 -1000 -1000 -1000 
-1000 -1000 -1000 -1000 -1000 -1000 -1000 -1000 -1000 
-1000 -1000 -1000 -1000 -1000 -1000 -1000 -1000 -1000 
-1000 -1000 -1000 -1000 -1000 -1000 -1000 -1000 -1000 
-1000 -1000 -1000 -1000 -1000 -1000 -1000 -1000 -1000 
-1000 -1000 -1000 -1000 -1000 -1000 -1000 -1000 -1000 
-1000 -1000 -1000 -1000 -1000 -1000 -1000 -1000 -1000 
-1000 -1000 -1000 -1000 -1000 -1000 -1000 -1000 -1000 