# vtk DataFile Version 3.0
vtk output
ASCII
DATASET POLYDATA
POINTS 17746 float
-79.923 -7.21691 -14.2475 -79.0688 -8.08119 -13.9183 -78.7547 -7.48627 -13.9234 
-81.0721 -7.36796 -14.4025 -80.0253 -8.17444 -14.0933 -81.0117 -8.0785 -14.2321 
-78.0162 -6.08911 -13.8287 -77.1076 -6.76835 -13.5097 -76.9686 -5.85634 -13.4915 
-79.1839 -6.41561 -14.1485 -77.9194 -7.17118 -13.7228 -80.4338 -6.15358 -14.4854 
-81.3234 -6.36214 -14.5943 -81.8371 -7.512 -14.4035 -82.4518 -6.54215 -14.5918 
-83.5692 -6.34846 -14.5117 -82.8207 -7.22815 -14.4167 -83.8565 -6.79037 -14.3687 
-78.0797 -4.79746 -13.8764 -76.9098 -4.91757 -13.4854 -79.2843 -5.13558 -14.2127 
-80.4601 -5.24375 -14.4985 -81.5602 -5.29741 -14.6944 -82.6534 -5.36667 -14.7183 
-83.7363 -5.45031 -14.5786 -84.6649 -5.71437 -14.3079 -77.4774 -3.68759 -13.7214 
-76.3581 -4.47919 -13.2983 -76.3306 -3.71574 -13.3354 -78.7733 -3.58154 -14.0727 
-79.6291 -3.89975 -14.2659 -80.7104 -4.10198 -14.4993 -81.8287 -4.19847 -14.6631 
-82.7221 -4.39217 -14.72 -83.9612 -4.18245 -14.5016 -84.7354 -4.66701 -14.3014 
-76.9113 -2.59732 -13.599 -75.858 -3.23092 -13.1762 -75.9545 -2.20839 -13.2295 
-78.0719 -2.38808 -13.9407 -78.9369 -2.59506 -14.0995 -80.0355 -2.70536 -14.2858 
-81.1333 -2.90085 -14.4561 -82.0134 -3.2045 -14.584 -83.434 -3.04169 -14.4976 
-84.8741 -2.94723 -14.0885 -85.2313 -3.72297 -14.0042 -77.0806 -1.26689 -13.6632 
-76.1638 -0.989057 -13.2583 -78.144 -1.40187 -13.9624 -79.2077 -1.48749 -14.1418 
-80.3191 -1.54816 -14.2427 -81.5403 -1.64039 -14.335 -82.8302 -1.93787 -14.4081 
-84.1901 -1.73163 -14.2499 -84.801 -2.11331 -14.1015 -77.3521 -0.0479594 -13.6682 
-76.5234 0.224589 -13.2421 -78.3904 -0.215751 -13.9698 -79.5113 -0.363227 -14.1203 
-80.4041 -0.598087 -14.1846 -81.7823 -0.310671 -14.1194 -83.0309 -0.610638 -14.1452 
-84.2688 -0.758106 -14.0815 -77.6764 1.05872 -13.5729 -77.0557 1.36126 -13.1628 
-78.6487 0.929837 -13.8709 -79.8186 0.808667 -14.0102 -81.1299 0.594124 -14.003 
-82.5176 0.853563 -13.8166 -83.3825 0.529241 -13.8291 -84.2669 0.189497 -13.8732 
-78.0036 1.8782 -13.3893 -77.8394 2.268 -13.0754 -78.8574 1.90625 -13.6089 
-80.0051 1.87538 -13.7532 -81.2207 1.76263 -13.7596 -82.4841 1.7097 -13.6255 
-78.9323 2.65289 -13.2199 -80.1693 2.77519 -13.3546 -81.4134 2.72681 -13.4164 
-82.4045 2.52386 -13.4208 -78.9564 -10.8491 -13.6438 -78.2128 -11.6526 -13.4986 
-77.8572 -11.0346 -13.4601 -80.1852 -11.09 -13.7858 -79.1154 -11.8891 -13.6098 
-81.3584 -11.1843 -13.8656 -80.2489 -12.0523 -13.7034 -82.4575 -11.19 -13.8719 
-81.4208 -12.0436 -13.7478 -82.441 -11.8396 -13.7529 -76.7554 -9.57967 -13.3104 
-76.0635 -10.2551 -13.1749 -75.7406 -9.53204 -13.1256 -78.0325 -10.0536 -13.5338 
-76.9601 -10.6819 -13.3218 -79.262 -9.82475 -13.7548 -80.2628 -10.0446 -13.8693 
-81.4525 -10.168 -13.9733 -82.6615 -10.2311 -14.0359 -83.2163 -11.2423 -13.8236 
-83.8255 -10.3576 -14.0107 -84.0256 -10.9315 -13.862 -75.8677 -8.50378 -13.171 
-75.0687 -9.0922 -13.0313 -74.806 -8.35788 -12.9985 -76.9968 -8.65839 -13.3919 
-77.7049 -9.13342 -13.5169 -78.8894 -8.97058 -13.7632 -80.3839 -8.95076 -13.9907 
-81.6408 -9.0842 -14.0684 -82.9144 -9.10427 -14.144 -84.1787 -9.17628 -14.1958 
-84.8297 -10.3067 -13.9901 -85.4652 -9.30886 -14.1644 -86.6784 -9.10343 -14.0518 
-85.8989 -9.991 -13.9765 -87.1235 -9.55912 -13.7568 -75.0074 -7.36825 -12.9988 
-74.1522 -7.90884 -12.8809 -73.9502 -7.2019 -12.7816 -75.9144 -7.59854 -13.1851 
-76.8068 -7.70105 -13.3859 -77.9827 -8.21764 -13.638 -81.8126 -8.15349 -14.2255 
-83.196 -7.88195 -14.2498 -84.4801 -7.94408 -14.245 -85.7289 -8.0439 -14.2422 
-86.883 -8.18763 -14.0919 -87.687 -8.51436 -13.7609 -74.2668 -6.29835 -12.729 
-73.3716 -6.73668 -12.5718 -73.3051 -5.83771 -12.3906 -75.2324 -6.29281 -12.9761 
-76.1038 -6.7503 -13.2226 -84.7167 -6.7669 -14.2456 -86.0159 -6.67818 -14.1211 
-87.1152 -7.01288 -14.0101 -88.2267 -7.23032 -13.5531 -74.2233 -5.13658 -12.5743 
-73.3294 -4.75992 -12.2353 -74.9828 -5.52089 -12.8517 -75.9539 -5.48304 -13.1495 
-85.7716 -5.65047 -14.0286 -86.6516 -5.55386 -13.8439 -87.3533 -5.86307 -13.7633 
-88.1523 -6.17085 -13.5502 -74.2153 -4.01535 -12.4865 -73.4093 -3.83769 -12.1782 
-75.3438 -4.35698 -12.9363 -85.7628 -4.50842 -13.8815 -86.5466 -4.83981 -13.7032 
-74.0095 -2.84757 -12.3797 -73.013 -3.27984 -12.0627 -73.1538 -2.2778 -12.0827 
-75.0424 -3.1058 -12.8225 -85.7944 -2.90812 -13.6697 -86.125 -3.46573 -13.5835 
-74.2573 -1.48728 -12.4067 -73.442 -1.03844 -12.0603 -75.0915 -1.88813 -12.813 
-85.5494 -1.03779 -13.8572 -85.9581 -2.02646 -13.6442 -74.6359 -0.212239 -12.3865 
-73.8545 0.21209 -12.0056 -75.3826 -0.62661 -12.8152 -85.7019 0.352551 -13.734 
-86.8091 -1.10541 -13.4687 -87.2347 -0.0174927 -13.5332 -88.5507 0.211371 -13.3018 
-88.2574 -0.775076 -13.0475 -89.221 0.0541138 -13.0073 -75.1832 1.07944 -12.3316 
-74.35 1.47129 -11.9346 -75.8851 0.642288 -12.7805 -83.7162 1.60702 -13.5226 
-84.9799 1.30202 -13.567 -86.3916 1.53124 -13.5323 -87.3563 1.24146 -13.5406 
-88.5151 1.05163 -13.401 -89.4602 0.848007 -13.113 -75.7899 2.38098 -12.2333 
-74.8765 2.72608 -11.8511 -76.7985 2.06292 -12.7011 -83.8113 2.74251 -13.2414 
-85.1347 2.51219 -13.2751 -86.4038 2.44038 -13.3507 -87.6333 2.38426 -13.3978 
-88.7298 2.16534 -13.3402 -89.688 1.86645 -13.1211 -76.3256 3.62146 -12.1075 
-75.4215 3.92857 -11.7535 -77.4304 3.41798 -12.4596 -78.7072 3.30378 -12.7964 
-80.3209 3.59631 -12.9492 -81.683 3.64195 -13.0314 -83.0706 3.5156 -13.0703 
-84.4832 3.78891 -12.9657 -85.3989 3.599 -13.0337 -86.5682 3.51741 -13.1311 
-87.8051 3.49396 -13.2268 -89.1564 3.44298 -13.2046 -89.9535 2.93334 -13.0724 
-76.7466 4.71537 -11.9657 -75.9648 4.85225 -11.6771 -77.8973 4.6311 -12.2914 
-79.2006 4.53422 -12.5248 -80.5785 4.53729 -12.6567 -81.9422 4.58279 -12.7299 
-83.2359 4.57281 -12.7772 -84.4955 4.59044 -12.7939 -85.6528 4.60343 -12.8277 
-86.7595 4.57701 -12.9232 -87.9258 4.58251 -13.0468 -89.153 4.5939 -13.1071 
-90.3157 3.78929 -13.0096 -90.4159 4.61372 -12.9767 -90.9747 4.25099 -12.8163 
-76.87 5.4638 -11.7979 -77.3985 6.32259 -11.7799 -78.1662 5.81505 -12.109 
-79.584 5.69067 -12.3828 -80.938 5.61311 -12.4896 -82.2443 5.58273 -12.5347 
-83.4853 5.57066 -12.5688 -84.6725 5.56778 -12.603 -85.8165 5.58089 -12.6489 
-86.9299 5.60354 -12.7326 -88.0493 5.63597 -12.8571 -89.199 5.66193 -12.9586 
-90.3505 5.63528 -12.9034 -91.3519 4.80732 -12.6547 -91.3665 5.50975 -12.5933 
-92.0426 5.11936 -12.0753 -78.7823 7.0452 -12.0476 -77.8949 7.35011 -11.7457 
-79.935 6.82873 -12.2874 -81.2524 6.70089 -12.3902 -82.5341 6.62183 -12.4097 
-83.7408 6.58079 -12.4193 -84.8833 6.56814 -12.4437 -85.987 6.5802 -12.4893 
-87.0728 6.61613 -12.5677 -88.1624 6.66757 -12.6825 -89.2698 6.70614 -12.7862 
-90.3811 6.66775 -12.752 -91.4181 6.46539 -12.4403 -92.2333 6.02467 -11.8583 
-79.1163 8.03557 -11.9515 -78.3526 8.16627 -11.7146 -80.2324 7.9285 -12.1894 
-81.507 7.77769 -12.3036 -82.7704 7.66488 -12.3153 -83.9578 7.59821 -12.3062 
-85.0724 7.57369 -12.3181 -86.1423 7.58534 -12.3605 -87.1959 7.62772 -12.4374 
-88.2544 7.69169 -12.5455 -89.3326 7.74626 -12.6406 -90.4252 7.71728 -12.5996 
-91.4728 7.49538 -12.2638 -92.3622 6.99155 -11.5937 -79.146 8.71925 -11.8144 
-79.4677 9.5588 -11.7769 -80.3257 9.05281 -12.0289 -81.6914 8.85722 -12.1984 
-82.9499 8.71122 -12.2277 -84.1238 8.6225 -12.2168 -85.2206 8.58622 -12.2243 
-86.2654 8.59643 -12.2662 -87.29 8.64485 -12.3437 -88.3164 8.71533 -12.4498 
-89.3622 8.78583 -12.541 -90.4402 8.78897 -12.4976 -91.5061 8.5862 -12.1459 
-92.4438 8.05991 -11.4048 -80.6687 10.4242 -11.9601 -79.5821 10.4614 -11.759 
-81.8643 9.99244 -12.1013 -83.0821 9.78243 -12.1462 -84.2395 9.66836 -12.1473 
-85.3229 9.61908 -12.1605 -86.3487 9.61998 -12.2052 -87.346 9.66815 -12.2781 
-88.3469 9.74359 -12.3724 -89.342 9.79758 -12.4635 -90.3736 9.85096 -12.4376 
-91.4748 9.75014 -12.1123 -92.4962 9.24957 -11.3438 -80.0891 11.4783 -11.8658 
-79.0478 10.9751 -11.6839 -79.0418 11.9402 -11.712 -81.2066 11.5125 -12.0077 
-82.0685 11.1383 -12.0578 -83.1813 10.8873 -12.0858 -84.3041 10.7498 -12.0948 
-85.3777 10.6868 -12.117 -86.3975 10.6696 -12.1636 -87.3575 10.6764 -12.2262 
-88.323 10.762 -12.2796 -89.3294 10.8224 -12.335 -90.1732 10.6953 -12.3736 
-91.2492 10.9781 -12.1211 -92.5032 10.6325 -11.4475 -80.0418 12.6986 -11.8469 
-79.1351 13.0753 -11.6898 -81.0832 12.4456 -11.9718 -82.1526 12.2239 -12.0319 
-83.2187 11.9995 -12.0398 -84.3081 11.858 -12.0363 -85.3761 11.7837 -12.0555 
-86.4042 11.7499 -12.1002 -87.387 11.7125 -12.1423 -88.1777 11.5864 -12.1832 
-89.222 11.9511 -12.0985 -90.4105 11.753 -12.1209 -91.4262 12.0241 -11.9346 
-92.1102 11.6979 -11.7409 -80.0372 13.7321 -11.7654 -79.3576 13.954 -11.6324 
-81.0066 13.5355 -11.8841 -82.0981 13.2984 -11.9527 -83.1681 13.0704 -11.9669 
-84.2235 12.9424 -11.9284 -85.2963 12.8798 -11.9017 -86.3419 12.8184 -11.9365 
-87.3619 12.7761 -11.9686 -88.4515 12.6755 -11.9515 -89.4569 13.0037 -11.7793 
-90.2515 12.8126 -11.8123 -91.0928 12.6402 -11.821 -79.9618 14.4614 -11.6325 
-80.2985 15.2074 -11.4568 -80.8825 14.6125 -11.6761 -82.014 14.3625 -11.7597 
-83.1197 14.104 -11.7771 -84.0071 13.8075 -11.7858 -85.092 13.9967 -11.5835 
-86.2175 13.8181 -11.6027 -87.2274 13.7581 -11.6538 -88.2027 13.7086 -11.661 
-89.1639 13.7556 -11.5781 -81.1099 15.4711 -11.4108 -80.8191 15.9383 -11.2163 
-81.933 15.3186 -11.446 -83.0405 15.0988 -11.4388 -84.2394 14.772 -11.3967 
-85.2869 14.9257 -11.1336 -86.1135 14.7395 -11.1561 -87.0887 14.646 -11.2294 
-88.0504 14.6101 -11.3139 -88.8498 14.4912 -11.3668 -81.7488 16.1157 -11.129 
-82.8605 16.0178 -11.0689 -83.9998 15.782 -11.0108 -84.919 15.5144 -10.948 
-80.4925 -15.6657 -13.8885 -79.9049 -16.4431 -13.67 -79.4517 -15.8883 -13.6851 
-81.6916 -15.852 -14.0234 -80.8487 -16.5895 -13.7716 -82.7254 -15.9563 -14.0471 
-81.9533 -16.6477 -13.8511 -82.8106 -16.5737 -13.8777 -35.7216 -9.59485 -16.3168 
-35.0284 -10.4732 -15.9212 -34.6693 -9.72498 -16.1615 -36.9021 -10.0342 -16.2349 
[...]
POINT_DATA 17746
SCALARS scalars float
LOOKUP_TABLE default
-1000 -1000 -1000 -1000 -1000 -1000 -1000 -1000 -1000 
-1000 -1000 -1000 -1000 -1000 -1000 -1000 -1000 -1000 
-1000 -1000 -1000 -1000 -1000 -1000 -1000 -1000 -1000 
-1000 -1000 -1000 -1000 -1000 -1000 -1000 -1000 -1000 
-1000 -1000 -1000 -1000 -1000 -1000 -1000 -1000 -1000 
-1000 -1000 -1000 -1000 -1000 -1000 -1000 -1000 -1000 
-1000 -1000 -1000 -1000 -1000 -1000 -1000 -1000 -1000 
-1000 -1000 -1000 -1000 -1000 -1000 -1000 -1000 -1000 
-1000 -1000 -1000 -1000 -1000 -1000 -1000 -1000 -1000 
-1000 -1000 -1000 -1000 -1000 -1000 -1000 -1000 -1000 
-1000 -1000 -1000 -1000 -1000 -1000 -1000 -1000 -1000 
-1000 -1000 -1000 -1000 -1000 -1000 -1000 -1000 -1000 
-1000 -1000 -1000 -1000 -1000 -1000 -1000 -1000 -1000 
-1000 -1000 -1000 -1000 -1000 -1000 -1000 -1000 -1000 
-1000 -1000 -1000 -1000 -1000 -1000 -1000 -1000 -1000 
-1000 -1000 -1000 -1000 -1000 -1000 -1000 -1000 -1000 
-1000 -1000 -1000 -1000 -1000 -1000 -1000 -1000 -1000 
-1000 -1000 -1000 -1000 -1000 -1000 -1000 -1000 -1000 
-1000 -1000 -1000 -1000 -1000 -1000 -1000 -1000 -1000 
-1000 -1000 -1000 -1000 -1000 -1000 -1000 -1000 -1000 
-1000 -1000 -1000 -1000 -1000 -1000 -1000 -1000 -1000 
-1000 -1000 -1000 -1000 -1000 -1000 -1000 -1000 -1000 
-1000 -1000 -1000 -1000 -1000 -1000 -1000 -1000 -1000 
-1000 -1000 -1000 -1000 -1000 -1000 -1000 -1000 -1000 
-1000 -1000 -1000 -1000 -1000 -1000 -1000 -1000 -1000 
-1000 -1000 -1000 -1000 -1000 -1000 -1000 -1000 -1000 
-1000 -1000 -1000 -1000 -1000 -1000 -1000 -1000 -1000 
-1000 -1000 -1000 -1000 -1000 -1000 -1000 -1000 -1000 
-1000 -1000 -1000 -1000 -1000 -1000 -1000 -1000 -1000 
-1000 -1000 -1000 -1000 -1000 -1000 -1000 -1000 -1000 
-1000 -1000 -1000 -1000 -1000 -1000 -1000 -1000 -1000 
-1000 -1000 -1000 -1000 -1000 -1000 -1000 -1000 -1000 
-1000 -1000 -1000 -1000 -1000 -1000 -1000 -1000 -1000 
-1000 -1000 -1000 -1000 -1000 -1000 -1000 -1000 -1000 
-1000 -1000 -1000 -1000 -1000 -1000 -1000 -1000 -1000 
-1000 -1000 -1000 -1000 -1000 -1000 -1000 -1000 -1000 
-1000 -1000 -1000 -1000 -1000 -1000 -1000 -1000 -1000 
-1000 -1000 -1000 -1000 -1000 -1000 -1000 -1000 -1000 
-1000 -1000 -1000 -1000 -1000 -1000 -1000 -1000 -1000 
-1000 -1000 -1000 -1000 -1000 -1000 -1000 -1000 -1000 
-1000 -1000 -1000 -1000 -1000 -1000 -1000 -1000 -1000 
-1000 -1000 -1000 -1000 -1000 -1000 -1000 -1000 -1000 
-1000 -1000 -1000 -1000 -1000 -1000 -1000 -1000 -1000 
-1000 -1000 -1000 -1000 -1000 -1000 -1000 -1000 -1000 
-1000 -1000 -1000 -1000 -1000 -1000 -1000 -1000 -1000 
-1000 -1000 -1000 -1000 -1000 -1000 -1000 -1000 -1000 
-1000 -1000 -1000 -1000 -1000 -1000 -1000 -1000 -1000 
-1000 -1000 -1000 -1000 -1000 -1000 -1000 -1000 -1000 
-1000 -1000 -1000 -1000 -1000 -1000 -1000 -1000 -1000 
-1000 -1000 -1000 -1000 -1000 -1000 -1000 -1000 -1000 
-1000 -1000 -1000 -1000 -1000 -1000 -1000 -1000 -1000 
-1000 -1000 -1000 -1000 -1000 -1000 -1000 -1000 -1000 
-1000 -1000 -1000 -1000 -1000 -1000 -1000 -1000 -1000 
-1000 -1000 -1000 -1000 -1000 -1000 -1000 -1000 -1000 
-1000 -1000 -1000 -1000 -1000 -1000 -1000 -1000 -1000 
-1000 -1000 -1000 -1000 -1000 -1000 -1000 -1000 -1000 
-1000 -1000 -1000 -1000 -1000 -1000 -1000 -1000 -1000 
-1000 -1000 -1000 -1000 -1000 -1000 -1000 -1000 -1000 
-1000 -1000 -1000 -1000 -1000 -1000 -1000 -1000 -1000 
-1000 -1000 -1000 -1000 -1000 -1000 -1000 -1000 -1000 
-1000 -1000 -1000 -1000 -1000 -1000 -1000 -1000 -1000 
-1000 -1000 -1000 -1000 -1000 -1000 -1000 -1000 -1000 
-1000 -1000 -1000 -1000 -1000 -1000 -1000 -1000 -1000 
-1000 -1000 -1000 -1000 -1000 -1000 -1000 -1000 -1000 
-1000 -1000 -1000 -1000 -1000 -1000 -1000 -1000 -1000 
-1000 -1000 -1000 -1000 -1000 -1000 -1000 -1000 -1000 
-1000 -1000 -1000 -1000 -1000 -1000 -1000 -1000 -1000 
-1000 -1000 -1000 -1000 -1000 -1000 -1000 -1000 -1000 
-1000 -1000 -1000 -1000 -1000 -1000 -1000 -1000 -1000 
-1000 -1000 -1000 -1000 -1000 -1000 -1000 -1000 -1000 
-1000 -1000 -1000 -1000 -1000 -1000 -1000 -1000 -1000 
-1000 -1000 -1000 -1000 -1000 -1000 -1000 -1000 -1000 
-1000 -1000 -1000 -1000 -1000 -1000 -1000 -1000 -1000 
-1000 -1000 -1000 -1000 -1000 -1000 -1000 -1000 -1000 
-1000 -1000 -1000 -1000 -1000 -1000 -1000 -1000 -1000 
-1000 -1000 -1000 -1000 -1000 -1000 -1000 -1000 -1000 
-1000 -1000 -1000 -1000 -1000 -1000 -1000 -1000 -1000 
-1000 -1000 -1000 -1000 -1000 -1000 -1000 -1000 -1000 
-1000 -1000 -1000 -1000 -1000 -1000 -1000 -1000 -1000 
-1000 -1000 -1000 -1000 -1000 -1000 -1000 -1000 -1000 
-1000 -1000 -1000 -1000 -1000 -1000 -1000 -1000 -1000 
-1000 -1000 -1000 -1000 -1000 -1000 -1000 -1000 -1000 
-1000 -1000 -1000 -1000 -1000 -1000 -1000 -1000 -1000 
-1000 -1000 -1000 -1000 -1000 -1000 -1000 -1000 -1000 
-1000 -1000 -1000 -1000 -1000 -1000 -1000 -1000 -1000 
-1000 -1000 -1000 -1000 -1000 -1000 -1000 -1000 -1000 
-1000 -1000 -1000 -1000 -1000 -1000 -1000 -1000 -1000 
-1000 -1000 -1000 -1000 -1000 -1000 -1000 -1000 -1000 
-1000 -1000 -1000 -1000 -1000 -1000 -1000 -1000 -1000 
-1000 -1000 -1000 -1000 -1000 -1000 -1000 -1000 -1000 
-1000 -1000 -1000 -1000 -1000 -1000 -1000 -1000 -1000 
-1000 -1000 -1000 -1000 -1000 -1000 -1000 -1000 -1000 
-1000 -1000 -1000 -1000 -1000 -1000 -1000 -1000 -1000 
-1000 -1000 -1000 -1000 -1000 -1000 -1000 -1000 -1000 
-1000 -1000 -1000 -1000 -1000 -1000 -1000 -1000 -1000 
-1000 -1000 -1000 -1000 -1000 -1000 -1000 -1000 -1000 
-1000 -1000 -1000 -1000 -1000 -1000 -1000 -1000 -1000 
-1000 -1000 -1000 -1000 -1000 -1000 -1000 -1000 -1000 
-1000 -1000 -1000 -1000 -1000 -1000 -1000 -1000 -1000 
-1000 -1000 -1000 -1000 -1000 -1000 -1000 -1000 -1000 
-1000 -1000 -1000 -1000 -1000 -1000 -1000 -1000 -1000 
-1000 -1000 -1000 -1000 -1000 -1000 -1000 -1000 -1000 
-1000 -1000 -1000 -1000 -1000 -1000 -1000 -1000 -1000 
-1000 -1000 -1000 -1000 -1000 -1000 -1000 -1000 -1000 
-1000 -1000 -1000 -1000 -1000 -1000 -1000 -1000 -1000 
-1000 -1000 -1000 -1000 -1000 -1000 -1000 -1000 -1000 
-1000 -1000 -1000 -1000 -1000 -1000 -1000 -1000 -1000 
-1000 -1000 -1000 -1000 -1000 -1000 -1000 -1000 -1000 
-1000 -1000 -1000 -1000 -1000 -1000 -1000 -1000 -1000 
-1000 -1000 -1000 -1000 -1000 -1000 -1000 -1000 -1000 
-1000 -1000 -1000 -1000 -1000 -1000 -1000 -1000 -1000 
-1000 -1000 -1000 -1000 -1000 -1000 -1000 -1000 -1000 
-1000 -1000 -1000 -1000 -1000 -1000 -1000 -1000 -1000 
-1000 -1000 -1000 -1000 -1000 -1000 -1000 -1000 -1000 
-1000 -1000 -1000 -1000 -1000 -1000 -1000 -1000 -1000 
-1000 -1000 -1000 -1000 -1000 -1000 -1000 -1000 -1000 
-1000 -1000 -1000 -1000 -1000 -1000 -1000 -1000 -1000 
-1000 -1000 -1000 -1000 -1000 -1000 -1000 -1000 -1000 
-1000 -1000 -1000 -1000 -1000 -1000 -1000 -1000 -1000 
-1000 -1000 -1000 -1000 -1000 -1000 -1000 -1000 -1000 
-1000 -1000 -1000 -1000 -1000 -1000 -1000 -1000 -1000 
-1000 -1000 -1000 -1000 -1000 -1000 -1000 -1000 -1000 
-1000 -1000 -1000 -1000 -1000 -1000 -1000 -1000 -1000 
-1000 -1000 -1000 -1000 -1000 -1000 -1000 -1000 -1000 
-1000 -1000 -1000 -1000 -1000 -1000 -1000 -1000 -1000 
-1000 -1000 -1000 -1000 -1000 -1000 -1000 -1000 -1000 
-1000 -1000 -1000 -1000 -1000 -1000 -1000 -1000 -1000 
-1000 -1000 -1000 -1000 -1000 -1000 -1000 -1000 -1000 
-1000 -1000 -1000 -1000 -1000 -1000 -1000 -1000 -1000 
-1000 -1000 -1000 -1000 -1000 -1000 -1000 -1000 -1000 
-1000 -1000 -1000 -1000 -1000 -1000 -1000 -1000 -1000 
-1000 -1000 -1000 -1000 -1000 -1000 -1000 -1000 -1000 
-1000 -1000 -1000 -1000 -1000 -1000 -1000 -1000 -1000 
-1000 -1000 -1000 -1000 -1000 -1000 -1000 -1000 -1000 
-1000 -1000 -1000 -1000 -1000 -1000 -1000 -1000 -1000 
-1000 -1000 -1000 -1000 -1000 -1000 -1000 -1000 -1000 
-1000 -1000 -1000 -1000 -1000 -1000 -1000 -1000 -1000 
-1000 -1000 -1000 -1000 -1000 -1000 -1000 -1000 -1000 
-1000 -1000 -1000 -1000 -1000 -1000 -1000 -1000 -1000 
-1000 -1000 -1000 -1000 -1000 -1000 -1000 -1000 -1000 
-1000 -1000 -1000 -1000 -1000 -1000 -1000 -1000 -1000 
-1000 -1000 -1000 -1000 -1000 -1000 -1000 -1000 -1000 
-1000 -1000 -1000 -1000 -1000 -1000 -1000 -1000 -1000 
-1000 -1000 -1000 -1000 -1000 -1000 -1000 -1000 -1000 
-1000 -1000 -1000 -1000 -1000 -1000 -1000 -1000 -1000 
-1000 -1000 -1000 -1000 -1000 -1000 -1000 -1000 -1000 
-1000 -1000 -1000 -1000 -1000 -1000 -1000 -1000 -1000 
-1000 -1000 -1000 -1000 -1000 -1000 -1000 -1000 -1000 
-1000 -1000 -1000 -1000 -1000 -1000 -1000 -1000 -1000 
-1000 -1000 -1000 -1000 -1000 -1000 -1000 -1000 -1000 
-1000 -1000 -1000 -1000 -1000 -1000 -1000 -1000 -1000 
-1000 -1000 -1000 -1000 -1000 -1000 -1000 -1000 -1000 
-1000 -1000 -1000 -1000 -1000 -1000 -1000 -1000 -1000 
-1000 -1000 -1000 -1000 -1000 -1000 -1000 -1000 -1000 
-1000 -1000 -1000 -1000 -1000 -1000 -1000 -1000 -1000 
-1000 -1000 -1000 -1000 -1000 -1000 -1000 -1000 -1000 
-1000 -1000 -1000 -1000 -1000 -1000 -1000 -1000 -1000 
-1000 -1000 -1000 -1000 -1000 -1000 -1000 -1000 -1000 
-1000 -1000 -1000 -1000 -1000 -1000 -1000 -1000 -1000 
-1000 -1000 -1000 -1000 -1000 -1000 -1000 -1000 -1000 
-1000 -1000 -1000 -1000 -1000 -1000 -1000 -1000 -1000 
-1000 -1000 -1000 -1000 -1000 -1000 -1000 -1000 -1000 
-1000 -1000 -1000 -1000 -1000 -1000 -1000 -1000 -1000 
-1000 -1000 -1000 -1000 -1000 -1000 -1000 -1000 -1000 
-1000 -1000 -1000 -1000 -1000 -1000 -1000 -1000 -1000 
-1000 -1000 -1000 -1000 -1000 -1000 -1000 -1000 -1000 
-1000 -1000 -1000 -1000 -1000 -1000 -1000 -1000 -1000 
-1000 -1000 -1000 -1000 -1000 -1000 -1000 -1000 -1000 
-1000 -1000 -1000 -1000 -1000 -1000 -1000 -1000 -1000 
-1000 -1000 -1000 -1000 -1000 -1000 -1000 -1000 -1000 
-1000 -1000 -1000 -1000 -1000 -1000 -1000 -1000 -1000 
-1000 -1000 -1000 -1000 -1000 -1000 -1000 -1000 -1000 
-1000 -1000 -1000 -1000 -1000 -1000 -1000 -1000 -1000 
-1000 -1000 -1000 -1000 -1000 -1000 -1000 -1000 -1000 
-1000 -1000 -1000 -1000 -1000 -1000 -1000 -1000 -1000 
-1000 -1000 -1000 -1000 -1000 -1000 -1000 -1000 -1000 
-1000 -1000 -1000 -1000 -1000 -1000 -1000 -1000 -1000 
-1000 -1000 -1000 -1000 -1000 -1000 -1000 -1000 -1000 
-1000 -1000 -1000 -1000 -1000 -1000 -1000 -1000 -1000 
-1000 -1000 -1000 -1000 -1000 -1000 -1000 -1000 -1000 
-1000 -1000 -1000 -1000 -1000 -1000 -1000 -1000 -1000 
-1000 -1000 -1000 -1000 -1000 -1000 -1000 -1000 -1000 
-1000 -1000 -1000 -1000 -1000 -1000 -1000 -1000 -1000 
-1000 -1000 -1000 -1000 -1000 -1000 -1000 -1000 -1000 
-1000 -1000 -1000 -1000 -1000 -1000 -1000 -1000 -1000 
-1000 -1000 -1000 -1000 -1000 -1000 -1000 -1000 -1000 
-1000 -1000 -1000 -1000 -1000 -1000 -1000 -1000 -1000 
-1000 -1000 -1000 -1000 -1000 -1000 -1000 -1000 -1000 
-1000 -1000 -1000 -1000 -1000 -1000 -1000 -1000 -1000 
-1000 -1000 -1000 -1000 -1000 -1000 -1000 -1000 -1000 
-1000 -1000 -1000 -1000 -1000 -1000 -1000 -1000 -1000 
-1000 -1000 -1000 -1000 -1000 -1000 -1000 -1000 -1000 
-1000 -1000 -1000 -1000 -1000 -1000 -1000 -1000 -1000 
-1000 -1000 -1000 -1000 -1000 -1000 -1000 -1000 -1000 
-1000 -1000 -1000 -1000 -1000 -1000 -1000 -1000 -1000 
-1000 -1000 -1000 -1000 -1000 -1000 -1000 -1000 -1000 
-1000 -1000 -1000 -1000 -1000 -1000 -1000 -1000 -1000 
-1000 -1000 -1000 -1000 -1000 -1000 -1000 -1000 -1000 
-1000 -1000 -1000 -1000 -1000 -1000 -1000 -1000 -1000 
-1000 -1000 -1000 -1000 -1000 -1000 -1000 -1000 -1000 
-1000 -1000 -1000 -1000 -1000 -1000 -1000 -1000 -1000 
-1000 -1000 -1000 -1000 -1000 -1000 -1000 -1000 -1000 
-1000 -1000 -1000 -1000 -1000 -1000 -1000 -1000 -1000 
-1000 -1000 -1000 -1000 -1000 -1000 -1000 -1000 -1000 
-1000 -1000 -1000 -1000 -1000 -1000 -1000 -1000 -1000 
-1000 -1000 -1000 -1000 -1000 -1000 -1000 -1000 -1000 
-1000 -1000 -1000 -1000 -1000 -1000 -1000 -1000 -1000 
-1000 -1000 -1000 -1000 -1000 -1000 -1000 -1000 -1000 
-1000 -1000 -1000 -1000 -1000 -1000 -1000 -1000 -1000 
-1000 -1000 -1000 -1000 -1000 -1000 -1000 -1000 -1000 
-1000 -1000 -1000 -1000 -1000 -1000 -1000 -1000 -1000 
-1000 -1000 -1000 -1000 -1000 -1000 -1000 -1000 -1000 
-1000 -1000 -1000 -1000 -1000 -1000 -1000 -1000 -1000 
-1000 -1000 -1000 -1000 -1000 -1000 -1000 -1000 -1000 
-1000 -1000 -1000 -1000 -1000 -1000 -1000 -1000 -1000 
-1000 -1000 -1000 -1000 -1000 -1000 -1000 -1000 -1000 
-1000 -1000 -1000 -1000 -1000 -1000 -1000 -1000 -1000 
-1000 -1000 -1000 -1000 -1000 -1000 -1000 -1000 -1000 
-1000 -1000 -1000 -1000 -1000 -1000 -1000 -1000 -1000 
-1000 -1000 -1000 -1000 -1000 -1000 -1000 -1000 -1000 
-1000 -1000 -1000 -1000 -1000 -1000 -1000 -1000 -1000 
-1000 -1000 -1000 -1000 -1000 -1000 -1000 -1000 -1000 
-1000 -1000 -1000 -1000 -1000 -1000 -1000 -1000 -1000 
-1000 -1000 -1000 -1000 -1000 -1000 -1000 -1000 -1000 
-1000 -1000 -1000 -1000 -1000 -1000 -1000 -1000 -1000 
-1000 -1000 -1000 -1000 -1000 -1000 -1000 -1000 -1000 
-1000 -1000 -1000 -1000 -1000 -1000 -1000 -1000 -1000 
-1000 -1000 -1000 -1000 -1000 -1000 -1000 -1000 -1000 
-1000 -1000 -1000 -1000 -1000 -1000 -1000 -1000 -1000 
-1000 -1000 -1000 -1000 -1000 -1000 -1000 -1000 -1000 
-1000 -1000 -1000 -1000 -1000 -1000 -1000 -1000 -1000 
-1000 -1000 -1000 -1000 -1000 -1000 -1000 -1000 -1000 
-1000 -1000 -1000 -1000 -1000 -1000 -1000 -1000 -1000 
-1000 -1000 -1000 -1000 -1000 -1000 -1000 -1000 -1000 
-1000 -1000 -1000 -1000 -1000 -1000 -1000 -1000 -1000 
-1000 -1000 -1000 -1000 -1000 -1000 -1000 -1000 -1000 
-1000 -1000 -1000 -1000 -1000 -1000 -1000 -1000 -1000 
-1000 -1000 -1000 -1000 -1000 -1000 -1000 -1000 -1000 
-1000 -1000 -1000 -1000 -1000 -1000 -1000 -1000 -1000 
-1000 -1000 -1000 -1000 -1000 -1000 -1000 -1000 -1000 
-1000 -1000 -1000 -1000 -1000 -1000 -1000 -1000 -1000 
-1000 -1000 -1000 -1000 -1000 -1000 -1000 -1000 -1000 
-1000 -1000 -1000 -1000 -1000 -1000 -1000 -1000 -1000 
-1000 -1000 -1000 -1000 -1000 -1000 -1000 -1000 -1000 
-1000 -1000 -1000 -1000 -1000 -1000 -1000 -1000 -1000 
-1000 -1000 -1000 -1000 -1000 -1000 -1000 -1000 -1000 
-1000 -1000 -1000 -1000 -1000 -1000 -1000 -1000 -1000 
-1000 -1000 -1000 -1000 -1000 -1000 -1000 -1000 -1000 
-1000 -1000 -1000 -1000 -1000 -1000 -1000 -1000 -1000 
-1000 -1000 -1000 -1000 -1000 -1000 -1000 -1000 -1000 
-1000 -1000 -1000 -1000 -1000 -1000 -1000 -1000 -1000 
-1000 -1000 -1000 -1000 -1000 -1000 -1000 -1000 -1000 
-1000 -1000 -1000 -1000 -1000 -1000 -1000 -1000 -1000 
-1000 -1000 -1000 -1000 -1000 -1000 -1000 -1000 -1000 
-1000 -1000 -1000 -1000 -1000 -1000 -1000 -1000 -1000 
-1000 -1000 -1000 -1000 -1000 -1000 -1000 -1000 -1000 
-1000 -1000 -1000 -1000 -1000 -1000 -1000 -1000 -1000 
-1000 -1000 -1000 -1000 -1000 -1000 -1000 -1000 -1000 
-1000 -1000 -1000 -1000 -1000 -1000 -1000 -1000 -1000 
-1000 -1000 -1000 -1000 -1000 -1000 -1000 -1000 -1000 
-1000 -1000 -1000 -1000 -1000 -1000 -1000 -1000 -1000 
-1000 -1000 -1000 -1000 -1000 -1000 -1000 -1000 -1000 
-1000 -1000 -1000 -1000 -1000 -1000 -1000 -1000 -1000 
-1000 -1000 -1000 -1000 -1000 -1000 -1000 -1000 -1000 
-1000 -1000 -1000 -1000 -1000 -1000 -1000 -1000 -1000 
-1000 -1000 -1000 -1000 -1000 -1000 -1000 -1000 -1000 
-1000 -1000 -1000 -1000 -1000 -1000 -1000 -1000 -1000 
-1000 -1000 -1000 -1000 -1000 -1000 -1000 -1000 -1000 
-1000 -1000 -1000 -1000 -1000 -1000 -1000 -1000 -1000 
-1000 -1000 -1000 -1000 -1000 -1000 -1000 -1000 -1000 
-1000 -1000 -1000 -1000 -1000 -1000 -1000 -1000 -1000 
-1000 -1000 -1000 -1000 -1000 -1000 -1000 -1000 -1000 
-1000 -1000 -1000 -1000 -1000 -1000 -1000 -1000 -1000 
-1000 -1000 -1000 -1000 -1000 -1000 -1000 -1000 -1000 
-1000 -1000 -1000 -1000 -1000 -1000 -1000 -1000 -1000 
-1000 -1000 -1000 -1000 -1000 -1000 -1000 -1000 -1000 
-1000 -1000 -1000 -1000 -1000 -1000 -1000 -1000 -1000 
-1000 -1000 -1000 -1000 -1000 -1000 -1000 -1000 -1000 
-1000 -1000 -1000 -1000 -1000 -1000 -1000 -1000 -1000 
-1000 -1000 -1000 -1000 -1000 -1000 -1000 -1000 -1000 
-1000 -1000 -1000 -1000 -1000 -1000 -1000 -1000 -1000 
-1000 -1000 -1000 -1000 -1000 -1000 -1000 -1000 -1000 
-1000 -1000 -1000 -1000 -1000 -1000 -1000 -1000 -1000 
-1000 -1000 -1000 -1000 -1000 -1000 -1000 -1000 -1000 
-1000 -1000 -1000 -1000 -1000 -1000 -1000 -1000 -1000 
-1000 -1000 -1000 -1000 -1000 -1000 -1000 -1000 -1000 
-1000 -1000 -1000 -1000 -1000 -1000 -1000 -1000 -1000 
-1000 -1000 -1000 -1000 -1000 -1000 -1000 -1000 -1000 
-1000 -1000 -1000 -1000 -1000 -1000 -1000 -1000 -1000 
-1000 -1000 -1000 -1000 -1000 -1000 -1000 -1000 -1000 
-1000 -1000 -1000 -1000 -1000 -1000 -1000 -1000 -1000 
-1000 -1000 -1000 -1000 -1000 -1000 -1000 -1000 -1000 
-1000 -1000 -1000 -1000 -1000 -1000 -1000 -1000 -1000 
-1000 -1000 -1000 -1000 -1000 -1000 -1000 -1000 -1000 
-1000 -1000 -1000 -1000 -1000 -1000 -1000 -1000 -1000 
-1000 -1000 -1000 -1000 -1000 -1000 -1000 -1000 -1000 
-1000 -1000 -1000 -1000 -1000 -1000 -1000 -1000 -1000 
-1000 -1000 -1000 -1000 -1000 -1000 -1000 -1000 -1000 
-1000 -1000 -1000 -1000 -1000 -1000 -1000 -1000 -1000 
-1000 -1000 -1000 -1000 -1000 -1000 -1000 -1000 -1000 
-1000 -1000 -1000 -1000 -1000 -1000 -1000 -1000 -1000 
-1000 -1000 -1000 -1000 -1000 -1000 -1000 -1000 -1000 
-1000 -1000 -1000 -1000 -1000 -1000 -1000 -1000 -1000 
-1000 -1000 -1000 -1000 -1000 -1000 -1000 -1000 -1000 
-1000 -1000 -1000 -1000 -1000 -1000 -1000 -1000 -1000 
-1000 -1000 -1000 -1000 -1000 -1000 -1000 -1000 -1000 
-1000 -1000 -1000 -1000 -1000 -1000 -1000 -1000 -1000 
-1000 -1000 -1000 -1000 -1000 -1000 -1000 -1000 -1000 
-1000 -1000 -1000 -1000 -1000 -1000 -1000 -1000 -1000 
-1000 -1000 -1000 -1000 -1000 -1000 -1000 -1000 -1000 
-1000 -1000 -1000 -1000 -1000 -1000 -1000 -1000 -1000 
-1000 -1000 -1000 -1000 -1000 -1000 -1000 -1000 -1000 
-1000 -1000 -1000 -1000 -1000 -1000 -1000 -1000 -1000 
-1000 -1000 -1000 -1000 -1000 -1000 -1000 -1000 -1000 
-1000 -1000 -1000 -1000 -1000 -1000 -1000 -1000 -1000 
-1000 -1000 -1000 -1000 -1000 -1000 -1000 -1000 -1000 
-1000 -1000 -1000 -1000 -1000 -1000 -1000 -1000 -1000 
-1000 -1000 -1000 -1000 -1000 -1000 -1000 -1000 -1000 
-1000 -1000 -1000 -1000 -1000 -1000 -1000 -1000 -1000 
-1000 -1000 -1000 -1000 -1000 -1000 -1000 -1000 -1000 
-1000 -1000 -1000 -1000 -1000 -1000 -1000 -1000 -1000 
-1000 -1000 -1000 -1000 -1000 -1000 -1000 -1000 -1000 
-1000 -1000 -1000 -1000 -1000 -1000 -1000 -1000 -1000 
-1000 -1000 -1000 -1000 -1000 -1000 -1000 -1000 -1000 
-1000 -1000 -1000 -1000 -1000 -1000 -1000 -1000 -1000 
-1000 -1000 -1000 -1000 -1000 -1000 -1000 -1000 -1000 
-1000 -1000 -1000 -1000 -1000 -1000 -1000 -1000 -1000 
-1000 -1000 -1000 -1000 -1000 -1000 -1000 -1000 -1000 
-1000 -1000 -1000 -1000 -1000 -1000 -1000 -1000 -1000 
-1000 -1000 -1000 -1000 -1000 -1000 -1000 -1000 -1000 
-1000 -1000 -1000 -1000 -1000 -1000 -1000 -1000 -1000 
-1000 -1000 -1000 -1000 -1000 -1000 -1000 -1000 -1000 
-1000 -1000 -1000 -1000 -1000 -1000 -1000 -1000 -1000 
-1000 -1000 -1000 -1000 -1000 -1000 -1000 -1000 -1000 
-1000 -1000 -1000 -1000 -1000 -1000 -1000 -1000 -1000 
-1000 -1000 -1000 -1000 -1000 -1000 -1000 -1000 -1000 
-1000 -1000 -1000 -1000 -1000 -1000 -1000 -1000 -1000 
-1000 -1000 -1000 -1000 -1000 -1000 -1000 -1000 -1000 
-1000 -1000 -1000 -1000 -1000 -1000 -1000 -1000 -1000 
-1000 -1000 -1000 -1000 -1000 -1000 -1000 -1000 -1000 
-1000 -1000 -1000 -1000 -1000 -1000 -1000 -1000 -1000 
-1000 -1000 -1000 -1000 -1000 -1000 -1000 -1000 -1000 
-1000 -1000 -1000 -1000 -1000 -1000 -1000 -1000 -1000 
-1000 -1000 -1000 -1000 -1000 -1000 -1000 -1000 -1000 
-1000 -1000 -1000 -1000 -1000 -1000 -1000 -1000 -1000 
-1000 -1000 -1000 -1000 -1000 -1000 -1000 -1000 -1000 
-1000 -1000 -1000 -1000 -1000 -1000 -1000 -1000 -1000 
-1000 -1000 -1000 -1000 -1000 -1000 -1000 -1000 -1000 
-1000 -1000 -1000 -1000 -1000 -1000 -1000 -1000 -1000 
-1000 -1000 -1000 -1000 -1000 -1000 -1000 -1000 -1000 
-1000 -1000 -1000 -1000 -1000 -1000 -1000 -1000 -1000 
-1000 -1000 -1000 -1000 -1000 -1000 -1000 -1000 -1000 
-1000 -1000 -1000 -1000 -1000 -1000 -1000 -1000 -1000 
-1000 -1000 -1000 -1000 -1000 -1000 -1000 -1000 -1000 
-1000 -1000 -1000 -1000 -1000 -1000 -1000 -1000 -1000 
-1000 -1000 -1000 -1000 -1000 -1000 -1000 -1000 -1000 