# vtk DataFile Version 3.0
vtk output
ASCII
DATASET POLYDATA
POINTS 13638 float
-79.4808 -19.6319 -91.0715 -79.696 -19.4366 -91.0703 -79.7173 -19.4085 -91.014 
-79.6994 -19.4327 -91.0703 -80.5469 -18.5582 -91.0578 -80.5715 -18.5579 -90.857 
-81.0223 -17.9314 -91.0404 -82.0105 -16.1997 -90.9717 -82.0697 -15.9829 -90.959 
-82.0722 -16.1374 -90.7394 -81.6367 -16.9525 -91.0051 -62.5789 -22.7888 -90.2341 
-62.8901 -22.9074 -90.2629 -63.0258 -22.9743 -90.044 -63.607 -23.0276 -90.3178 
-63.8352 -23.0577 -90.3346 -64.815 -23.1513 -90.4042 -64.9859 -23.2896 -89.9473 
-65.373 -23.2496 -90.4473 -65.7281 -23.3675 -90.1641 -65.6456 -23.3049 -90.4688 
-66.5315 -23.5336 -90.5427 -66.8485 -23.5882 -90.5671 -66.8315 -23.6549 -90.2351 
-67.7544 -23.7518 -90.6373 -68.0344 -23.9328 -90.1492 -68.7676 -23.8215 -90.7072 
-69.1401 -23.8354 -90.732 -69.454 -23.8967 -90.5182 -69.0987 -24.2027 -89.7635 
-68.3792 -23.7931 -90.6803 -70.0442 -24.1233 -90.0402 -69.5068 -23.851 -90.7565 
-71.7275 -23.7307 -90.889 -71.8409 -23.7164 -90.7654 -71.0411 -23.8228 -90.8522 
-70.9679 -23.9443 -90.4078 -70.5279 -23.8327 -90.8202 -69.9391 -23.8614 -90.7849 
-71.8918 -24.0382 -89.7417 -71.8184 -23.7164 -90.8937 -72.1367 -23.6224 -90.9068 
-72.7381 -23.4476 -90.9319 -72.9051 -23.4023 -90.9391 -73.3344 -23.657 -89.7779 
-74.3087 -22.9095 -90.9911 -74.5934 -22.8058 -91.0013 -75.0653 -22.7312 -90.6851 
-74.3726 -23.2125 -90.1294 -74.1587 -22.954 -90.9849 -75.1171 -23.0553 -89.7421 
-75.1512 -22.5961 -91.0209 -76.0765 -22.1678 -91.0473 -76.0934 -22.1603 -91.0478 
-76.0994 -22.1569 -91.048 -76.4268 -22.2648 -89.8363 -77.4127 -21.3456 -91.07 
-77.4434 -21.3224 -91.0702 -77.6412 -21.3394 -89.8931 -78.613 -20.4163 -91.0758 
-78.6268 -20.4039 -91.0758 -78.7753 -20.3577 -89.9205 -79.8465 -19.3737 -89.9077 
-80.8515 -18.3406 -89.8946 -81.3216 -17.5314 -91.0291 -81.402 -17.4259 -91.0262 
-81.7449 -17.1866 -89.7699 -82.4356 -14.8427 -90.3685 -82.3908 -15.9768 -89.4717 
-82.3148 -14.9403 -90.8953 -82.393 -13.5299 -90.793 -82.3135 -12.5505 -90.7134 
-82.5498 -13.586 -89.982 -82.3607 -14.2647 -90.8468 -81.6594 -10.136 -90.4881 
-81.5942 -9.91356 -90.467 -81.6675 -10.1516 -90.2511 -82.0378 -11.2769 -90.599 
-82.0098 -11.1837 -90.5901 -82.0376 -11.2861 -90.4751 -82.1455 -11.7443 -90.6414 
-57.7468 -19.5277 -89.678 -58.1823 -19.7183 -89.7203 -58.298 -19.7977 -89.5762 
-58.316 -19.7922 -89.7344 -59.4995 -20.5628 -89.8685 -59.6534 -20.704 -89.889 
-59.6727 -20.6821 -89.647 -59.2811 -20.3917 -89.8415 -60.3625 -21.3104 -89.9803 
-60.8202 -21.7021 -90.0393 -60.8182 -21.6742 -89.3965 -61.2403 -22.0406 -90.0918 
-62.0034 -22.5325 -90.1779 -61.964 -22.6069 -89.1634 -63.4982 -23.2597 -89.5976 
-63.1198 -23.2956 -89.0818 -62.2167 -22.6549 -90.2008 -64.0477 -23.6313 -88.9715 
-63.7215 -23.0482 -90.3267 -65.6791 -23.6438 -89.3245 -65.0348 -23.8083 -88.8633 
-63.7671 -23.0547 -90.3301 -63.7441 -23.0523 -90.3284 -66.0134 -24.0343 -88.5966 
-66.6654 -24.0198 -88.9873 -68.4795 -24.3319 -89.3472 -67.8167 -24.2882 -89.1004 
-68.9498 -24.6578 -88.5434 -70.7906 -24.3148 -89.4875 -70.0006 -24.5415 -88.9868 
-71.0285 -24.5972 -88.5697 -72.3313 -24.3934 -88.3957 -73.4418 -24.0189 -88.7637 
-74.0909 -23.609 -89.3814 -74.2573 -23.8018 -88.5828 -75.3853 -23.21 -88.586 
-76.596 -22.3508 -88.6477 -77.7502 -21.3878 -88.707 -78.8725 -20.3836 -88.7568 
-79.9755 -19.355 -88.7743 -81.0397 -18.2744 -88.7055 -82.035 -17.0607 -88.4291 
-82.7692 -14.7733 -88.8461 -82.6388 -15.9173 -88.4816 -82.4739 -12.4969 -89.6446 
-82.7397 -13.4857 -89.0125 -82.2977 -12.3974 -90.7008 -81.3585 -9.10386 -90.0185 
-81.7982 -10.1479 -89.1401 -81.3368 -9.07239 -90.3866 -82.2637 -11.4738 -89.1179 
-81.1328 -8.06823 -90.2972 -80.9877 -7.22091 -90.2235 -81.2355 -8.18719 -89.4806 
-81.2485 -8.65802 -90.3495 -80.7972 -5.98739 -90.1176 -80.7707 -5.80645 -90.1021 
-80.7938 -6.00525 -89.9451 -80.8592 -6.44182 -90.1561 -54.952 -17.8354 -89.3711 
-55.0716 -17.9197 -89.3851 -55.0979 -17.9145 -89.2034 -54.6489 -17.5836 -89.3326 
-55.7866 -18.4465 -89.4708 -56.2253 -18.6886 -89.5172 -56.1922 -18.766 -88.9341 
-56.7239 -19.0067 -89.5732 -57.4688 -19.396 -89.6503 -57.3209 -19.5863 -88.6535 
-59.0966 -20.4416 -89.0984 -58.4965 -20.358 -88.4563 -57.5297 -19.4306 -89.6568 
-59.9062 -21.0911 -88.6408 -59.6437 -21.2068 -87.9836 -60.4115 -21.6846 -87.8821 
-58.7293 -20.0162 -89.7778 -60.6625 -21.6528 -88.4851 -61.8331 -22.6529 -87.9552 
-63.0486 -23.5215 -87.8058 -64.6188 -24.0448 -88.2971 -64.1996 -24.1058 -87.8016 
-65.1675 -24.4015 -87.6875 -66.701 -24.4266 -87.9872 -65.9655 -24.4191 -87.8173 
-66.887 -24.9121 -86.9042 -67.9264 -24.7803 -87.6723 -69.1986 -25.0448 -87.4484 
-70.0394 -24.9174 -87.8836 -71.0395 -25.0095 -87.2149 -72.2774 -24.8301 -87.0443 
-73.2654 -24.3602 -87.8072 -74.2096 -24.1306 -87.3273 -75.5325 -23.356 -87.3642 
-76.7295 -22.4747 -87.411 -77.8965 -21.4998 -87.5074 -79.0339 -20.4658 -87.6157 
-80.1389 -19.419 -87.6378 -81.1872 -18.3616 -87.5373 -81.9818 -17.4706 -87.2712 
-82.843 -15.5032 -88.059 -82.6163 -16.2959 -87.504 -82.6857 -12.7548 -88.6993 
-82.8946 -13.7328 -88.0821 -82.9494 -15.0048 -87.4107 -81.5439 -9.27022 -89.1002 
-81.8573 -9.93114 -88.3733 -82.2859 -11.114 -87.8398 -82.7191 -12.5445 -87.8514 
-81.0642 -7.08117 -89.1886 -81.4106 -8.0307 -88.3453 -80.949 -7.00353 -90.2046 
-81.6409 -9.05127 -88.3219 -80.6869 -5.04605 -89.4868 -80.99 -6.19502 -88.5732 
-80.6588 -5.00585 -90.0341 -80.3908 -3.18327 -89.8784 -80.3782 -3.12216 -89.8381 
-80.5238 -4.04474 -89.9524 -80.5962 -4.09726 -89.0388 -80.3812 -3.11494 -89.8726 
-80.5726 -4.41929 -89.984 -80.205 -2.17973 -89.7902 -80.124 -1.84567 -89.7596 
-80.2172 -2.1948 -89.4453 -80.3761 -3.08696 -89.8701 -52.682 -15.8746 -89.0772 
-52.956 -16.1104 -89.1127 -52.9892 -16.0718 -88.7121 -52.0032 -15.303 -88.9905 
-53.4291 -16.5233 -89.1742 -54.0046 -17.0299 -89.2494 -54.0424 -16.9739 -88.3887 
-54.1789 -17.1839 -89.2723 -55.0966 -17.8862 -88.0636 -56.1553 -18.7836 -87.7579 
-57.2255 -19.6572 -87.4713 -58.3253 -20.5215 -87.2028 -59.4543 -21.3933 -86.9412 
-61.2191 -22.3764 -87.4103 -60.6204 -22.2331 -86.7738 -62.0672 -23.0765 -86.916 
-61.7619 -23.1228 -86.3135 -62.5432 -23.6111 -86.1553 -63.0044 -23.7262 -86.5984 
-64.1709 -24.4159 -86.5104 -65.9108 -24.804 -86.9801 -65.1982 -24.7903 -86.6515 
-66.2394 -25.184 -86.0438 -67.2591 -25.4273 -85.6674 -68.045 -25.2997 -86.2193 
-69.9132 -25.2165 -86.9582 -69.0565 -25.3081 -86.5507 -70.1223 -25.463 -86.0555 
-71.4097 -25.3491 -85.8468 -72.4816 -25.0389 -86.2073 -73.1075 -24.6835 -86.8762 
-73.3175 -24.8177 -86.0767 -74.4556 -24.2808 -86.0746 -75.6806 -23.5468 -86.097 
-76.9476 -22.7334 -86.0769 -78.2299 -21.6248 -86.4303 -79.3459 -20.5842 -86.5672 
-80.4273 -19.5229 -86.5823 -81.4495 -18.446 -86.481 -82.3813 -17.215 -86.2916 
-82.8687 -15.9602 -86.5255 -82.9899 -13.7453 -86.9169 -83.0887 -14.9811 -86.0807 
-82.0287 -10.0653 -87.3652 -82.4284 -11.246 -86.3904 -82.7731 -12.4699 -86.6449 
-81.2712 -7.23088 -88.2456 -81.5369 -7.85208 -87.5603 -81.7911 -8.89175 -87.1488 
-80.8149 -5.10015 -88.2048 -81.1123 -6.08077 -87.2636 -81.3734 -7.06069 -87.4337 
-80.4971 -3.17702 -88.5803 -80.7213 -4.14846 -87.7608 -79.9633 -1.23415 -89.1278 
-80.2996 -2.2252 -88.1883 -79.9562 -1.22011 -89.7014 -79.3684 1.42131 -89.463 
-79.3663 1.54161 -89.4124 -79.4074 0.632776 -89.5254 -79.4524 0.614307 -88.6927 
-79.3637 1.5366 -89.4539 -79.6557 -0.253207 -89.6087 -79.4735 0.374184 -89.5493 
-79.6696 -0.260139 -88.8782 -79.7902 -0.693285 -89.6507 -79.3687 1.57791 -89.4511 
-79.498 2.49033 -89.3899 -79.5018 2.497 -89.3679 -79.6141 3.2825 -89.3371 
-79.6921 4.16009 -89.2753 -79.6488 3.25453 -88.7542 -79.5029 2.52806 -89.3874 
-79.703 5.12911 -89.2023 -79.6192 5.80697 -89.1454 -79.7723 5.1323 -88.6667 
-79.6966 4.23047 -89.2702 -78.884 8.11639 -88.9229 -78.733 8.49707 -88.8843 
-78.9486 8.08408 -88.5623 -79.2908 7.10339 -89.0258 -79.255 7.18963 -89.017 
-79.3016 7.1114 -88.9423 -79.3689 6.83454 -89.0513 -76.9029 11.9499 -88.505 
-76.8494 12.0488 -88.494 -76.9011 11.9546 -88.4178 -77.145 11.5554 -88.5504 
-74.618 15.7116 -88.0732 -74.6077 15.729 -88.0712 -74.5865 15.7114 -88.0677 
-74.6608 15.6471 -88.0808 -49.6445 -13.423 -88.6971 -49.82 -13.5596 -88.7187 
-49.8502 -13.5289 -88.4855 -49.1165 -13.0091 -88.632 -50.4034 -14.0188 -88.7908 
-50.8525 -14.3723 -88.8464 -50.8796 -14.3372 -88.2267 -51.1679 -14.6246 -88.8857 
-51.9039 -15.2199 -88.9778 -51.9273 -15.174 -87.9342 -51.9322 -15.2433 -88.9814 
-52.9843 -16.0399 -87.6143 -54.0434 -16.9317 -87.2789 -55.0982 -17.8391 -86.9441 
-56.1418 -18.7452 -86.6285 -57.1584 -19.6185 -86.3572 -58.1841 -20.4973 -86.0589 
-59.294 -21.4485 -85.7497 -60.4438 -22.4048 -85.5254 -61.5696 -23.2947 -85.3107 
-63.1995 -24.1219 -85.6305 -62.6942 -24.0355 -85.1685 -63.6051 -24.5935 -84.8616 
-37.7464 -3.15288 -87.1575 -37.9187 -3.445 -87.1907 -37.8823 -3.48569 -86.9373 
-38.02 -3.59214 -87.2083 -38.2736 -3.93016 -87.2502 -64.1317 -24.6988 -85.2859 
-65.4247 -25.2555 -85.2883 -66.6477 -25.6732 -84.934 -36.5837 -0.336579 -86.8691 
-36.6677 -0.596506 -86.8943 -36.5861 -0.620316 -86.6616 -36.7083 -0.728294 -86.9069 
-37.0849 -1.82731 -87.0145 -37.0554 -1.84879 -86.9082 -37.11 -1.89954 -87.0216 
-37.1817 -2.0577 -87.0382 -67.5924 -25.9567 -84.5446 -68.0661 -25.6601 -85.2915 
-68.4337 -25.982 -84.6442 -35.5435 3.07089 -86.5436 -35.7247 2.22773 -86.6193 
-35.5144 2.31882 -85.9027 -36.0562 1.20944 -86.7179 -36.0928 1.09964 -86.7286 
-36.0494 1.10036 -86.6021 -36.1181 1.04422 -86.7344 -36.1861 0.86152 -86.7527 
-69.009 -25.7063 -85.3599 -70.1593 -25.8974 -84.6885 -35.4766 3.89051 -86.477 
-35.3381 3.76669 -85.9631 -35.4783 4.34627 -86.4425 -35.3429 4.72443 -85.9071 
-35.4713 4.79504 -86.4079 -35.5413 3.08752 -86.5422 -71.3592 -25.7475 -84.5435 
-35.4391 5.7541 -86.3329 -35.2122 5.85576 -85.1978 -35.4039 6.36072 -86.2845 
-35.3275 6.67185 -86.1055 -35.3918 6.6324 -86.2631 -35.4464 5.37027 -86.3626 
[...]
POINT_DATA 13638
SCALARS scalars float
LOOKUP_TABLE default
-1000 -1000 -1000 -1000 -1000 -1000 -1000 -1000 -1000 
-1000 -1000 -1000 -1000 -1000 -1000 -1000 -1000 -1000 
-1000 -1000 -1000 -1000 -1000 -1000 -1000 -1000 -1000 
-1000 -1000 -1000 -1000 -1000 -1000 -1000 -1000 -1000 
-1000 -1000 -1000 -1000 -1000 -1000 -1000 -1000 -1000 
-1000 -1000 -1000 -1000 -1000 -1000 -1000 -1000 -1000 
-1000 -1000 -1000 -1000 -1000 -1000 -1000 -1000 -1000 
-1000 -1000 -1000 -1000 -1000 -1000 -1000 -1000 -1000 
-1000 -1000 -1000 -1000 -1000 -1000 -1000 -1000 -1000 
-1000 -1000 -1000 -1000 -1000 -1000 -1000 -1000 -1000 
-1000 -1000 -1000 -1000 -1000 -1000 -1000 -1000 -1000 
-1000 -1000 -1000 -1000 -1000 -1000 -1000 -1000 -1000 
-1000 -1000 -1000 -1000 -1000 -1000 -1000 -1000 -1000 
-1000 -1000 -1000 -1000 -1000 -1000 -1000 -1000 -1000 
-1000 -1000 -1000 -1000 -1000 -1000 -1000 -1000 -1000 
-1000 -1000 -1000 -1000 -1000 -1000 -1000 -1000 -1000 
-1000 -1000 -1000 -1000 -1000 -1000 -1000 -1000 -1000 
-1000 -1000 -1000 -1000 -1000 -1000 -1000 -1000 -1000 
-1000 -1000 -1000 -1000 -1000 -1000 -1000 -1000 -1000 
-1000 -1000 -1000 -1000 -1000 -1000 -1000 -1000 -1000 
-1000 -1000 -1000 -1000 -1000 -1000 -1000 -1000 -1000 
-1000 -1000 -1000 -1000 -1000 -1000 -1000 -1000 -1000 
-1000 -1000 -1000 -1000 -1000 -1000 -1000 -1000 -1000 
-1000 -1000 -1000 -1000 -1000 -1000 -1000 -1000 -1000 
-1000 -1000 -1000 -1000 -1000 -1000 -1000 -1000 -1000 
-1000 -1000 -1000 -1000 -1000 -1000 -1000 -1000 -1000 
-1000 -1000 -1000 -1000 -1000 -1000 -1000 -1000 -1000 
-1000 -1000 -1000 -1000 -1000 -1000 -1000 -1000 -1000 
-1000 -1000 -1000 -1000 -1000 -1000 -1000 -1000 -1000 
-1000 -1000 -1000 -1000 -1000 -1000 -1000 -1000 -1000 
-1000 -1000 -1000 -1000 -1000 -1000 -1000 -1000 -1000 
-1000 -1000 -1000 -1000 -1000 -1000 -1000 -1000 -1000 
-1000 -1000 -1000 -1000 -1000 -1000 -1000 -1000 -1000 
-1000 -1000 -1000 -1000 -1000 -1000 -1000 -1000 -1000 
-1000 -1000 -1000 -1000 -1000 -1000 -1000 -1000 -1000 
-1000 -1000 -1000 -1000 -1000 -1000 -1000 -1000 -1000 
-1000 -1000 -1000 -1000 -1000 -1000 -1000 -1000 -1000 
-1000 -1000 -1000 -1000 -1000 -1000 -1000 -1000 -1000 
-1000 -1000 -1000 -1000 -1000 -1000 -1000 -1000 -1000 
-1000 -1000 -1000 -1000 -1000 -1000 -1000 -1000 -1000 
-1000 -1000 -1000 -1000 -1000 -1000 -1000 -1000 -1000 
-1000 -1000 -1000 -1000 -1000 -1000 -1000 -1000 -1000 
-1000 -1000 -1000 -1000 -1000 -1000 -1000 -1000 -1000 
-1000 -1000 -1000 -1000 -1000 -1000 -1000 -1000 -1000 
-1000 -1000 -1000 -1000 -1000 -1000 -1000 -1000 -1000 
-1000 -1000 -1000 -1000 -1000 -1000 -1000 -1000 -1000 
-1000 -1000 -1000 -1000 -1000 -1000 -1000 -1000 -1000 
-1000 -1000 -1000 -1000 -1000 -1000 -1000 -1000 -1000 
-1000 -1000 -1000 -1000 -1000 -1000 -1000 -1000 -1000 
-1000 -1000 -1000 -1000 -1000 -1000 -1000 -1000 -1000 
-1000 -1000 -1000 -1000 -1000 -1000 -1000 -1000 -1000 
-1000 -1000 -1000 -1000 -1000 -1000 -1000 -1000 -1000 
-1000 -1000 -1000 -1000 -1000 -1000 -1000 -1000 -1000 
-1000 -1000 -1000 -1000 -1000 -1000 -1000 -1000 -1000 
-1000 -1000 -1000 -1000 -1000 -1000 -1000 -1000 -1000 
-1000 -1000 -1000 -1000 -1000 -1000 -1000 -1000 -1000 
-1000 -1000 -1000 -1000 -1000 -1000 -1000 -1000 -1000 
-1000 -1000 -1000 -1000 -1000 -1000 -1000 -1000 -1000 
-1000 -1000 -1000 -1000 -1000 -1000 -1000 -1000 -1000 
-1000 -1000 -1000 -1000 -1000 -1000 -1000 -1000 -1000 
-1000 -1000 -1000 -1000 -1000 -1000 -1000 -1000 -1000 
-1000 -1000 -1000 -1000 -1000 -1000 -1000 -1000 -1000 
-1000 -1000 -1000 -1000 -1000 -1000 -1000 -1000 -1000 
-1000 -1000 -1000 -1000 -1000 -1000 -1000 -1000 -1000 
-1000 -1000 -1000 -1000 -1000 -1000 -1000 -1000 -1000 
-1000 -1000 -1000 -1000 -1000 -1000 -1000 -1000 -1000 
-1000 -1000 -1000 -1000 -1000 -1000 -1000 -1000 -1000 
-1000 -1000 -1000 -1000 -1000 -1000 -1000 -1000 -1000 
-1000 -1000 -1000 -1000 -1000 -1000 -1000 -1000 -1000 
-1000 -1000 -1000 -1000 -1000 -1000 -1000 -1000 -1000 
-1000 -1000 -1000 -1000 -1000 -1000 -1000 -1000 -1000 
-1000 -1000 -1000 -1000 -1000 -1000 -1000 -1000 -1000 
-1000 -1000 -1000 -1000 -1000 -1000 -1000 -1000 -1000 
-1000 -1000 -1000 -1000 -1000 -1000 -1000 -1000 -1000 
-1000 -1000 -1000 -1000 -1000 -1000 -1000 -1000 -1000 
-1000 -1000 -1000 -1000 -1000 -1000 -1000 -1000 -1000 
-1000 -1000 -1000 -1000 -1000 -1000 -1000 -1000 -1000 
-1000 -1000 -1000 -1000 -1000 -1000 -1000 -1000 -1000 
-1000 -1000 -1000 -1000 -1000 -1000 -1000 -1000 -1000 
-1000 -1000 -1000 -1000 -1000 -1000 -1000 -1000 -1000 
-1000 -1000 -1000 -1000 -1000 -1000 -1000 -1000 -1000 
-1000 -1000 -1000 -1000 -1000 -1000 -1000 -1000 -1000 
-1000 -1000 -1000 -1000 -1000 -1000 -1000 -1000 -1000 
-1000 -1000 -1000 -1000 -1000 -1000 -1000 -1000 -1000 
-1000 -1000 -1000 -1000 -1000 -1000 -1000 -1000 -1000 
-1000 -1000 -1000 -1000 -1000 -1000 -1000 -1000 -1000 
-1000 -1000 -1000 -1000 -1000 -1000 -1000 -1000 -1000 
-1000 -1000 -1000 -1000 -1000 -1000 -1000 -1000 -1000 
-1000 -1000 -1000 -1000 -1000 -1000 -1000 -1000 -1000 
-1000 -1000 -1000 -1000 -1000 -1000 -1000 -1000 -1000 
-1000 -1000 -1000 -1000 -1000 -1000 -1000 -1000 -1000 
-1000 -1000 -1000 -1000 -1000 -1000 -1000 -1000 -1000 
-1000 -1000 -1000 -1000 -1000 -1000 -1000 -1000 -1000 
-1000 -1000 -1000 -1000 -1000 -1000 -1000 -1000 -1000 
-1000 -1000 -1000 -1000 -1000 -1000 -1000 -1000 -1000 
-1000 -1000 -1000 -1000 -1000 -1000 -1000 -1000 -1000 
-1000 -1000 -1000 -1000 -1000 -1000 -1000 -1000 -1000 
-1000 -1000 -1000 -1000 -1000 -1000 -1000 -1000 -1000 
-1000 -1000 -1000 -1000 -1000 -1000 -1000 -1000 -1000 
-1000 -1000 -1000 -1000 -1000 -1000 -1000 -1000 -1000 
-1000 -1000 -1000 -1000 -1000 -1000 -1000 -1000 -1000 
-1000 -1000 -1000 -1000 -1000 -1000 -1000 -1000 -1000 
-1000 -1000 -1000 -1000 -1000 -1000 -1000 -1000 -1000 
-1000 -1000 -1000 -1000 -1000 -1000 -1000 -1000 -1000 
-1000 -1000 -1000 -1000 -1000 -1000 -1000 -1000 -1000 
-1000 -1000 -1000 -1000 -1000 -1000 -1000 -1000 -1000 
-1000 -1000 -1000 -1000 -1000 -1000 -1000 -1000 -1000 
-1000 -1000 -1000 -1000 -1000 -1000 -1000 -1000 -1000 
-1000 -1000 -1000 -1000 -1000 -1000 -1000 -1000 -1000 
-1000 -1000 -1000 -1000 -1000 -1000 -1000 -1000 -1000 
-1000 -1000 -1000 -1000 -1000 -1000 -1000 -1000 -1000 
-1000 -1000 -1000 -1000 -1000 -1000 -1000 -1000 -1000 
-1000 -1000 -1000 -1000 -1000 -1000 -1000 -1000 -1000 
-1000 -1000 -1000 -1000 -1000 -1000 -1000 -1000 -1000 
-1000 -1000 -1000 -1000 -1000 -1000 -1000 -1000 -1000 
-1000 -1000 -1000 -1000 -1000 -1000 -1000 -1000 -1000 
-1000 -1000 -1000 -1000 -1000 -1000 -1000 -1000 -1000 
-1000 -1000 -1000 -1000 -1000 -1000 -1000 -1000 -1000 
-1000 -1000 -1000 -1000 -1000 -1000 -1000 -1000 -1000 
-1000 -1000 -1000 -1000 -1000 -1000 -1000 -1000 -1000 
-1000 -1000 -1000 -1000 -1000 -1000 -1000 -1000 -1000 
-1000 -1000 -1000 -1000 -1000 -1000 -1000 -1000 -1000 
-1000 -1000 -1000 -1000 -1000 -1000 -1000 -1000 -1000 
-1000 -1000 -1000 -1000 -1000 -1000 -1000 -1000 -1000 
-1000 -1000 -1000 -1000 -1000 -1000 -1000 -1000 -1000 
-1000 -1000 -1000 -1000 -1000 -1000 -1000 -1000 -1000 
-1000 -1000 -1000 -1000 -1000 -1000 -1000 -1000 -1000 
-1000 -1000 -1000 -1000 -1000 -1000 -1000 -1000 -1000 
-1000 -1000 -1000 -1000 -1000 -1000 -1000 -1000 -1000 
-1000 -1000 -1000 -1000 -1000 -1000 -1000 -1000 -1000 
-1000 -1000 -1000 -1000 -1000 -1000 -1000 -1000 -1000 
-1000 -1000 -1000 -1000 -1000 -1000 -1000 -1000 -1000 
-1000 -1000 -1000 -1000 -1000 -1000 -1000 -1000 -1000 
-1000 -1000 -1000 -1000 -1000 -1000 -1000 -1000 -1000 
-1000 -1000 -1000 -1000 -1000 -1000 -1000 -1000 -1000 
-1000 -1000 -1000 -1000 -1000 -1000 -1000 -1000 -1000 
-1000 -1000 -1000 -1000 -1000 -1000 -1000 -1000 -1000 
-1000 -1000 -1000 -1000 -1000 -1000 -1000 -1000 -1000 
-1000 -1000 -1000 -1000 -1000 -1000 -1000 -1000 -1000 
-1000 -1000 -1000 -1000 -1000 -1000 -1000 -1000 -1000 
-1000 -1000 -1000 -1000 -1000 -1000 -1000 -1000 -1000 
-1000 -1000 -1000 -1000 -1000 -1000 -1000 -1000 -1000 
-1000 -1000 -1000 -1000 -1000 -1000 -1000 -1000 -1000 
-1000 -1000 -1000 -1000 -1000 -1000 -1000 -1000 -1000 
-1000 -1000 -1000 -1000 -1000 -1000 -1000 -1000 -1000 
-1000 -1000 -1000 -1000 -1000 -1000 -1000 -1000 -1000 
-1000 -1000 -1000 -1000 -1000 -1000 -1000 -1000 -1000 
-1000 -1000 -1000 -1000 -1000 -1000 -1000 -1000 -1000 
-1000 -1000 -1000 -1000 -1000 -1000 -1000 -1000 -1000 
-1000 -1000 -1000 -1000 -1000 -1000 -1000 -1000 -1000 
-1000 -1000 -1000 -1000 -1000 -1000 -1000 -1000 -1000 
-1000 -1000 -1000 -1000 -1000 -1000 -1000 -1000 -1000 
-1000 -1000 -1000 -1000 -1000 -1000 -1000 -1000 -1000 
-1000 -1000 -1000 -1000 -1000 -1000 -1000 -1000 -1000 
-1000 -1000 -1000 -1000 -1000 -1000 -1000 -1000 -1000 
-1000 -1000 -1000 -1000 -1000 -1000 -1000 -1000 -1000 
-1000 -1000 -1000 -1000 -1000 -1000 -1000 -1000 -1000 
-1000 -1000 -1000 -1000 -1000 -1000 -1000 -1000 -1000 
-1000 -1000 -1000 -1000 -1000 -1000 -1000 -1000 -1000 
-1000 -1000 -1000 -1000 -1000 -1000 -1000 -1000 -1000 
-1000 -1000 -1000 -1000 -1000 -1000 -1000 -1000 -1000 
-1000 -1000 -1000 -1000 -1000 -1000 -1000 -1000 -1000 
-1000 -1000 -1000 -1000 -1000 -1000 -1000 -1000 -1000 
-1000 -1000 -1000 -1000 -1000 -1000 -1000 -1000 -1000 
-1000 -1000 -1000 -1000 -1000 -1000 -1000 -1000 -1000 
-1000 -1000 -1000 -1000 -1000 -1000 -1000 -1000 -1000 
-1000 -1000 -1000 -1000 -1000 -1000 -1000 -1000 -1000 
-1000 -1000 -1000 -1000 -1000 -1000 -1000 -1000 -1000 
-1000 -1000 -1000 -1000 -1000 -1000 -1000 -1000 -1000 
-1000 -1000 -1000 -1000 -1000 -1000 -1000 -1000 -1000 
-1000 -1000 -1000 -1000 -1000 -1000 -1000 -1000 -1000 
-1000 -1000 -1000 -1000 -1000 -1000 -1000 -1000 -1000 
-1000 -1000 -1000 -1000 -1000 -1000 -1000 -1000 -1000 
-1000 -1000 -1000 -1000 -1000 -1000 -1000 -1000 -1000 
-1000 -1000 -1000 -1000 -1000 -1000 -1000 -1000 -1000 
-1000 -1000 -1000 -1000 -1000 -1000 -1000 -1000 -1000 
-1000 -1000 -1000 -1000 -1000 -1000 -1000 -1000 -1000 
-1000 -1000 -1000 -1000 -1000 -1000 -1000 -1000 -1000 
-1000 -1000 -1000 -1000 -1000 -1000 -1000 -1000 -1000 
-1000 -1000 -1000 -1000 -1000 -1000 -1000 -1000 -1000 
-1000 -1000 -1000 -1000 -1000 -1000 -1000 -1000 -1000 
-1000 -1000 -1000 -1000 -1000 -1000 -1000 -1000 -1000 
-1000 -1000 -1000 -1000 -1000 -1000 -1000 -1000 -1000 
-1000 -1000 -1000 -1000 -1000 -1000 -1000 -1000 -1000 
-1000 -1000 -1000 -1000 -1000 -1000 -1000 -1000 -1000 
-1000 -1000 -1000 -1000 -1000 -1000 -1000 -1000 -1000 
-1000 -1000 -1000 -1000 -1000 -1000 -1000 -1000 -1000 
-1000 -1000 -1000 -1000 -1000 -1000 -1000 -1000 -1000 
-1000 -1000 -1000 -1000 -1000 -1000 -1000 -1000 -1000 
-1000 -1000 -1000 -1000 -1000 -1000 -1000 -1000 -1000 
-1000 -1000 -1000 -1000 -1000 -1000 -1000 -1000 -1000 
-1000 -1000 -1000 -1000 -1000 -1000 -1000 -1000 -1000 
-1000 -1000 -1000 -1000 -1000 -1000 -1000 -1000 -1000 
-1000 -1000 -1000 -1000 -1000 -1000 -1000 -1000 -1000 
-1000 -1000 -1000 -1000 -1000 -1000 -1000 -1000 -1000 
-1000 -1000 -1000 -1000 -1000 -1000 -1000 -1000 -1000 
-1000 -1000 -1000 -1000 -1000 -1000 -1000 -1000 -1000 
-1000 -1000 -1000 -1000 -1000 -1000 -1000 -1000 -1000 
-1000 -1000 -1000 -1000 -1000 -1000 -1000 -1000 -1000 
-1000 -1000 -1000 -1000 -1000 -1000 -1000 -1000 -1000 
-1000 -1000 -1000 -1000 -1000 -1000 -1000 -1000 -1000 
-1000 -1000 -1000 -1000 -1000 -1000 -1000 -1000 -1000 
-1000 -1000 -1000 -1000 -1000 -1000 -1000 -1000 -1000 
-1000 -1000 -1000 -1000 -1000 -1000 -1000 -1000 -1000 
-1000 -1000 -1000 -1000 -1000 -1000 -1000 -1000 -1000 
-1000 -1000 -1000 -1000 -1000 -1000 -1000 -1000 -1000 
-1000 -1000 -1000 -1000 -1000 -1000 -1000 -1000 -1000 
-1000 -1000 -1000 -1000 -1000 -1000 -1000 -1000 -1000 
-1000 -1000 -1000 -1000 -1000 -1000 -1000 -1000 -1000 
-1000 -1000 -1000 -1000 -1000 -1000 -1000 -1000 -1000 
-1000 -1000 -1000 -1000 -1000 -1000 -1000 -1000 -1000 
-1000 -1000 -1000 -1000 -1000 -1000 -1000 -1000 -1000 
-1000 -1000 -1000 -1000 -1000 -1000 -1000 -1000 -1000 
-1000 -1000 -1000 -1000 -1000 -1000 -1000 -1000 -1000 
-1000 -1000 -1000 -1000 -1000 -1000 -1000 -1000 -1000 
-1000 -1000 -1000 -1000 -1000 -1000 -1000 -1000 -1000 
-1000 -1000 -1000 -1000 -1000 -1000 -1000 -1000 -1000 
-1000 -1000 -1000 -1000 -1000 -1000 -1000 -1000 -1000 
-1000 -1000 -1000 -1000 -1000 -1000 -1000 -1000 -1000 
-1000 -1000 -1000 -1000 -1000 -1000 -1000 -1000 -1000 
-1000 -1000 -1000 -1000 -1000 -1000 -1000 -1000 -1000 
-1000 -1000 -1000 -1000 -1000 -1000 -1000 -1000 -1000 
-1000 -1000 -1000 -1000 -1000 -1000 -1000 -1000 -1000 
-1000 -1000 -1000 -1000 -1000 -1000 -1000 -1000 -1000 
-1000 -1000 -1000 -1000 -1000 -1000 -1000 -1000 -1000 
-1000 -1000 -1000 -1000 -1000 -1000 -1000 -1000 -1000 
-1000 -1000 -1000 -1000 -1000 -1000 -1000 -1000 -1000 
-1000 -1000 -1000 -1000 -1000 -1000 -1000 -1000 -1000 
-1000 -1000 -1000 -1000 -1000 -1000 -1000 -1000 -1000 
-1000 -1000 -1000 -1000 -1000 -1000 -1000 -1000 -1000 
-1000 -1000 -1000 -1000 -1000 -1000 -1000 -1000 -1000 
-1000 -1000 -1000 -1000 -1000 -1000 -1000 -1000 -1000 
-1000 -1000 -1000 -1000 -1000 -1000 -1000 -1000 -1000 
-1000 -1000 -1000 -1000 -1000 -1000 -1000 -1000 -1000 
-1000 -1000 -1000 -1000 -1000 -1000 -1000 -1000 -1000 
-1000 -1000 -1000 -1000 -1000 -1000 -1000 -1000 -1000 
-1000 -1000 -1000 -1000 -1000 -1000 -1000 -1000 -1000 
-1000 -1000 -1000 -1000 -1000 -1000 -1000 -1000 -1000 
-1000 -1000 -1000 -1000 -1000 -1000 -1000 -1000 -1000 
-1000 -1000 -1000 -1000 -1000 -1000 -1000 -1000 -1000 
-1000 -1000 -1000 -1000 -1000 -1000 -1000 -1000 -1000 
-1000 -1000 -1000 -1000 -1000 -1000 -1000 -1000 -1000 
-1000 -1000 -1000 -1000 -1000 -1000 -1000 -1000 -1000 
-1000 -1000 -1000 -1000 -1000 -1000 -1000 -1000 -1000 
-1000 -1000 -1000 -1000 -1000 -1000 -1000 -1000 -1000 
-1000 -1000 -1000 -1000 -1000 -1000 -1000 -1000 -1000 
-1000 -1000 -1000 -1000 -1000 -1000 -1000 -1000 -1000 
-1000 -1000 -1000 -1000 -1000 -1000 -1000 -1000 -1000 
-1000 -1000 -1000 -1000 -1000 -1000 -1000 -1000 -1000 
-1000 -1000 -1000 -1000 -1000 -1000 -1000 -1000 -1000 
-1000 -1000 -1000 -1000 -1000 -1000 -1000 -1000 -1000 
-1000 -1000 -1000 -1000 -1000 -1000 -1000 -1000 -1000 
-1000 -1000 -1000 -1000 -1000 -1000 -1000 -1000 -1000 
-1000 -1000 -1000 -1000 -1000 -1000 -1000 -1000 -1000 
-1000 -1000 -1000 -1000 -1000 -1000 -1000 -1000 -1000 
-1000 -1000 -1000 -1000 -1000 -1000 -1000 -1000 -1000 
-1000 -1000 -1000 -1000 -1000 -1000 -1000 -1000 -1000 
-1000 -1000 -1000 -1000 -1000 -1000 -1000 -1000 -1000 
-1000 -1000 -1000 -1000 -1000 -1000 -1000 -1000 -1000 
-1000 -1000 -1000 -1000 -1000 -1000 -1000 -1000 -1000 
-1000 -1000 -1000 -1000 -1000 -1000 -1000 -1000 -1000 
-1000 -1000 -1000 -1000 -1000 -1000 -1000 -1000 -1000 
-1000 -1000 -1000 -1000 -1000 -1000 -1000 -1000 -1000 
-1000 -1000 -1000 -1000 -1000 -1000 -1000 -1000 -1000 
-1000 -1000 -1000 -1000 -1000 -1000 -1000 -1000 -1000 
-1000 -1000 -1000 -1000 -1000 -1000 -1000 -1000 -1000 
-1000 -1000 -1000 -1000 -1000 -1000 -1000 -1000 -1000 
-1000 -1000 -1000 -1000 -1000 -1000 -1000 -1000 -1000 
-1000 -1000 -1000 -1000 -1000 -1000 -1000 -1000 -1000 
-1000 -1000 -1000 -1000 -1000 -1000 -1000 -1000 -1000 
-1000 -1000 -1000 -1000 -1000 -1000 -1000 -1000 -1000 
-1000 -1000 -1000 -1000 -1000 -1000 -1000 -1000 -1000 
-1000 -1000 -1000 -1000 -1000 -1000 -1000 -1000 -1000 
-1000 -1000 -1000 -1000 -1000 -1000 -1000 -1000 -1000 
-1000 -1000 -1000 -1000 -1000 -1000 -1000 -1000 -1000 
-1000 -1000 -1000 -1000 -1000 -1000 -1000 -1000 -1000 
-1000 -1000 -1000 -1000 -1000 -1000 -1000 -1000 -1000 
-1000 -1000 -1000 -1000 -1000 -1000 -1000 -1000 -1000 
-1000 -1000 -1000 -1000 -1000 -1000 -1000 -1000 -1000 
-1000 -1000 -1000 -1000 -1000 -1000 -1000 -1000 -1000 
-1000 -1000 -1000 -1000 -1000 -1000 -1000 -1000 -1000 
-1000 -1000 -1000 -1000 -1000 -1000 -1000 -1000 -1000 
-1000 -1000 -1000 -1000 -1000 -1000 -1000 -1000 -1000 
-1000 -1000 -1000 -1000 -1000 -1000 -1000 -1000 -1000 
-1000 -1000 -1000 -1000 -1000 -1000 -1000 -1000 -1000 
-1000 -1000 -1000 -1000 -1000 -1000 -1000 -1000 -1000 
-1000 -1000 -1000 -1000 -1000 -1000 -1000 -1000 -1000 
-1000 -1000 -1000 -1000 -1000 -1000 -1000 -1000 -1000 
-1000 -1000 -1000 -1000 -1000 -1000 -1000 -1000 -1000 
-1000 -1000 -1000 -1000 -1000 -1000 -1000 -1000 -1000 
-1000 -1000 -1000 -1000 -1000 -1000 -1000 -1000 -1000 
-1000 -1000 -1000 -1000 -1000 -1000 -1000 -1000 -1000 
-1000 -1000 -1000 -1000 -1000 -1000 -1000 -1000 -1000 
-1000 -1000 -1000 -1000 -1000 -1000 -1000 -1000 -1000 
-1000 -1000 -1000 -1000 -1000 -1000 -1000 -1000 -1000 
-1000 -1000 -1000 -1000 -1000 -1000 -1000 -1000 -1000 
-1000 -1000 -1000 -1000 -1000 -1000 -1000 -1000 -1000 
-1000 -1000 -1000 -1000 -1000 -1000 -1000 -1000 -1000 
-1000 -1000 -1000 -1000 -1000 -1000 -1000 -1000 -1000 
-1000 -1000 -1000 -1000 -1000 -1000 -1000 -1000 -1000 
-1000 -1000 -1000 -1000 -1000 -1000 -1000 -1000 -1000 
-1000 -1000 -1000 -1000 -1000 -1000 -1000 -1000 -1000 
-1000 -1000 -1000 -1000 -1000 -1000 -1000 -1000 -1000 
-1000 -1000 -1000 -1000 -1000 -1000 -1000 -1000 -1000 
-1000 -1000 -1000 -1000 -1000 -1000 -1000 -1000 -1000 
-1000 -1000 -1000 -1000 -1000 -1000 -1000 -1000 -1000 
-1000 -1000 -1000 -1000 -1000 -1000 -1000 -1000 -1000 
-1000 -1000 -1000 -1000 -1000 -1000 -1000 -1000 -1000 
-1000 -1000 -1000 -1000 -1000 -1000 -1000 -1000 -1000 
-1000 -1000 -1000 -1000 -1000 -1000 -1000 -1000 -1000 
-1000 -1000 -1000 -1000 -1000 -1000 -1000 -1000 -1000 
-1000 -1000 -1000 -1000 -1000 -1000 -1000 -1000 -1000 
-1000 -1000 -1000 -1000 -1000 -1000 -1000 -1000 -1000 
-1000 -1000 -1000 -1000 -1000 -1000 -1000 -1000 -1000 
-1000 -1000 -1000 -1000 -1000 -1000 -1000 -1000 -1000 
-1000 -1000 -1000 -1000 -1000 -1000 -1000 -1000 -1000 
-1000 -1000 -1000 -1000 -1000 -1000 -1000 -1000 -1000 
-1000 -1000 -1000 -1000 -1000 -1000 -1000 -1000 -1000 
-1000 -1000 -1000 -1000 -1000 -1000 -1000 -1000 -1000 
-1000 -1000 -1000 -1000 -1000 -1000 -1000 -1000 -1000 
-1000 -1000 -1000 -1000 -1000 -1000 -1000 -1000 -1000 
-1000 -1000 -1000 -1000 -1000 -1000 -1000 -1000 -1000 
-1000 -1000 -1000 -1000 -1000 -1000 -1000 -1000 -1000 
-1000 -1000 -1000 -1000 -1000 -1000 -1000 -1000 -1000 
-1000 -1000 -1000 -1000 -1000 -1000 -1000 -1000 -1000 
-1000 -1000 -1000 -1000 -1000 -1000 -1000 -1000 -1000 
-1000 -1000 -1000 -1000 -1000 -1000 -1000 -1000 -1000 
-1000 -1000 -1000 -1000 -1000 -1000 -1000 -1000 -1000 
-1000 -1000 -1000 -1000 -1000 -1000 -1000 -1000 -1000 
-1000 -1000 -1000 -1000 -1000 -1000 -1000 -1000 -1000 
-1000 -1000 -1000 -1000 -1000 -1000 -1000 -1000 -1000 
-1000 -1000 -1000 -1000 -1000 -1000 -1000 -1000 -1000 
-1000 -1000 -1000 -1000 -1000 -1000 -1000 -1000 -1000 
-1000 -1000 -1000 -1000 -1000 -1000 -1000 -1000 -1000 
-1000 -1000 -1000 -1000 -1000 -1000 -1000 -1000 -1000 
-1000 -1000 -1000 -1000 -1000 -1000 -1000 -1000 -1000 
-1000 -1000 -1000 -1000 -1000 -1000 -1000 -1000 -1000 
-1000 -1000 -1000 -1000 -1000 -1000 -1000 -1000 -1000 
-1000 -1000 -1000 -1000 -1000 -1000 -1000 -1000 -1000 
-1000 -1000 -1000 -1000 -1000 -1000 -1000 -1000 -1000 
-1000 -1000 -1000 -1000 -1000 -1000 -1000 -1000 -1000 
-1000 -1000 -1000 -1000 -1000 -1000 -1000 -1000 -1000 
-1000 -1000 -1000 -1000 -1000 -1000 -1000 -1000 -1000 
-1000 -1000 -1000 -1000 -1000 -1000 -1000 -1000 -1000 
-1000 -1000 -1000 -1000 -1000 -1000 -1000 -1000 -1000 
-1000 -1000 -1000 -1000 -1000 -1000 -1000 -1000 -1000 
-1000 -1000 -1000 -1000 -1000 -1000 -1000 -1000 -1000 
-1000 -1000 -1000 -1000 -1000 -1000 -1000 -1000 -1000 
-1000 -1000 -1000 -1000 -1000 -1000 -1000 -1000 -1000 
-1000 -1000 -1000 -1000 -1000 -1000 -1000 -1000 -1000 
-1000 -1000 -1000 -1000 -1000 -1000 -1000 -1000 -1000 
-1000 -1000 -1000 -1000 -1000 -1000 -1000 -1000 -1000 
-1000 -1000 -1000 -1000 -1000 -1000 -1000 -1000 -1000 
-1000 -1000 -1000 -1000 -1000 -1000 -1000 -1000 -1000 
-1000 -1000 -1000 -1000 -1000 -1000 -1000 -1000 -1000 
-1000 -1000 -1000 -1000 -1000 -1000 -1000 -1000 -1000 