# vtk DataFile Version 3.0
vtk output
ASCII
DATASET POLYDATA
POINTS 13638 float
-79.4935 -24.0433 -84.3234 -79.751 -23.9397 -84.3016 -79.7441 -23.9195 -84.2783 
-79.7554 -23.9373 -84.3012 -80.8046 -23.4344 -84.2077 -80.7778 -23.4364 -84.046 
-81.438 -23.0296 -84.1455 -82.8954 -21.8021 -83.9856 -83.0199 -21.6267 -83.9679 
-82.9204 -21.7615 -83.789 -82.312 -22.3544 -84.0531 -63.2603 -21.21 -85.1652 
-63.5011 -21.4213 -85.1624 -63.5713 -21.514 -84.9653 -64.1061 -21.7703 -85.1448 
-64.3014 -21.8741 -85.1387 -65.1515 -22.2874 -85.1097 -65.2051 -22.4464 -84.6834 
-65.6209 -22.5633 -85.0964 -65.8604 -22.7713 -84.8188 -65.8479 -22.7047 -85.0904 
-66.5693 -23.2081 -85.0745 -66.8363 -23.3638 -85.0668 -66.7543 -23.3996 -84.78 
-67.5971 -23.8154 -85.0455 -67.7261 -24.047 -84.5816 -68.4851 -24.2184 -85.0136 
-68.8154 -24.356 -85.001 -69.0378 -24.5012 -84.7967 -68.5496 -24.6307 -84.1104 
-68.1452 -24.0624 -85.0257 -69.4447 -24.8846 -84.2831 -69.14 -24.4932 -84.9887 
-71.1761 -25.1306 -84.8992 -71.2499 -25.1447 -84.802 -70.5287 -24.9831 -84.9308 
-70.3622 -25.0453 -84.5449 -70.064 -24.8196 -84.9502 -69.5252 -24.6477 -84.9737 
-71.0942 -25.4145 -83.8194 -71.2625 -25.1483 -84.8949 -71.5796 -25.1705 -84.8765 
-72.1776 -25.2151 -84.8421 -72.3427 -25.2304 -84.8328 -72.5122 -25.5552 -83.7144 
-73.7665 -25.2579 -84.7464 -74.0565 -25.2601 -84.7286 -74.4493 -25.3344 -84.4133 
-73.6194 -25.5154 -83.9496 -73.617 -25.2477 -84.755 -74.3011 -25.6095 -83.5078 
-74.627 -25.2587 -84.6933 -75.5996 -25.1837 -84.6289 -75.6173 -25.1826 -84.6277 
-75.6237 -25.1815 -84.6273 -75.7431 -25.3411 -83.4712 -77.0711 -24.892 -84.5214 
-77.1063 -24.8814 -84.5186 -77.142 -24.919 -83.4083 -78.4556 -24.4582 -84.4111 
-78.472 -24.4517 -84.4097 -78.4855 -24.4184 -83.3251 -79.7705 -23.8933 -83.2095 
-81.0133 -23.3018 -83.1 -81.8385 -22.7699 -84.106 -81.9454 -22.7019 -84.0955 
-82.1874 -22.5604 -82.8947 -83.6471 -20.7087 -83.3997 -83.1439 -21.6802 -82.5477 
-83.5827 -20.7701 -83.8844 -84.1164 -19.5262 -83.7806 -84.3666 -18.6175 -83.7134 
-84.1374 -19.6063 -83.0193 -83.8459 -20.1771 -83.8344 -84.5718 -16.2236 -83.5645 
-84.5863 -16.0013 -83.551 -84.5326 -16.241 -83.3591 -84.5372 -17.378 -83.6324 
-84.5426 -17.2846 -83.6267 -84.5003 -17.3897 -83.5384 -84.4804 -17.8351 -83.6619 
-59.9872 -16.6505 -85.1079 -60.3161 -16.9684 -85.1057 -60.3771 -17.0717 -84.9739 
-60.4121 -17.0798 -85.1061 -61.223 -18.1713 -85.1181 -61.315 -18.3501 -85.1226 
-61.3137 -18.3256 -84.9093 -61.0828 -17.9438 -85.1139 -61.7532 -19.1343 -85.1402 
-62.0361 -19.6408 -85.1515 -61.9799 -19.5889 -84.5599 -62.3026 -20.0866 -85.1604 
-62.827 -20.7859 -85.1678 -62.6678 -20.7995 -84.2269 -63.8566 -21.9119 -84.4933 
-63.4601 -21.7999 -84.0374 -62.9786 -20.9678 -85.1688 -64.1652 -22.4065 -83.8423 
-64.2023 -21.8274 -85.1421 -65.6478 -22.9734 -84.0217 -64.9763 -22.8903 -83.6436 
-64.2412 -21.8485 -85.1409 -64.2213 -21.8386 -85.1416 -65.7489 -23.4098 -83.2943 
-66.3705 -23.6278 -83.6045 -67.9162 -24.5255 -83.7727 -67.3174 -24.2566 -83.6012 
-68.1533 -24.9465 -82.9598 -69.996 -25.2861 -83.6832 -69.1698 -25.2083 -83.2815 
-70.03 -25.5866 -82.7838 -71.2448 -25.8324 -82.4916 -72.3944 -25.8801 -82.7355 
-73.1671 -25.7508 -83.2626 -73.1784 -25.9513 -82.484 -74.3834 -25.7973 -82.378 
-75.7571 -25.4333 -82.32 -77.1151 -24.9575 -82.2654 -78.4578 -24.4338 -82.2047 
-79.789 -23.8805 -82.1149 -81.0957 -23.2643 -81.9464 -82.3672 -22.4981 -81.5863 
-83.8303 -20.7053 -81.9137 -83.2957 -21.6754 -81.5783 -84.4063 -18.5927 -82.7038 
-84.2529 -19.5463 -82.0749 -84.4028 -18.4744 -83.7031 -84.5894 -15.1901 -83.1653 
-84.5503 -16.2432 -82.2848 -84.6312 -15.1573 -83.5002 -84.5162 -17.5868 -82.2202 
-84.7776 -14.1845 -83.4357 -84.9256 -13.3728 -83.3804 -84.7401 -14.3079 -82.662 
-84.6879 -14.7545 -83.4737 -85.1595 -12.1979 -83.2991 -85.1951 -12.0261 -83.2871 
-85.1218 -12.2175 -83.1466 -85.066 -12.628 -83.3293 -58.0304 -14.1878 -85.0887 
-58.1102 -14.304 -85.0904 -58.1157 -14.3015 -84.9258 -57.8407 -13.8593 -85.0817 
-58.5801 -15.0184 -85.102 -58.8949 -15.3838 -85.1034 -58.7838 -15.4215 -84.5634 
-59.2387 -15.8377 -85.1079 -59.7805 -16.4385 -85.1087 -59.4917 -16.5242 -84.1867 
-60.8307 -17.8989 -84.4407 -60.2649 -17.6016 -83.8852 -59.8239 -16.4901 -85.1089 
-61.2939 -18.7355 -83.9257 -60.9613 -18.729 -83.3233 -61.477 -19.4099 -83.1524 
-60.71 -17.4203 -85.1071 -61.766 -19.486 -83.7042 -62.4263 -20.7548 -83.0856 
-63.2052 -21.934 -82.8259 -64.4745 -22.9442 -83.1431 -64.0351 -22.8418 -82.7107 
-64.7888 -23.4257 -82.5082 -66.175 -23.9695 -82.6461 -65.5063 -23.7118 -82.5549 
-66.0796 -24.4291 -81.5943 -67.1203 -24.6844 -82.2271 -68.1457 -25.3381 -81.8903 
-68.9779 -25.5196 -82.2244 -69.7783 -25.9123 -81.4893 -70.9272 -26.1585 -81.2066 
-72.0356 -26.0937 -81.8394 -72.9114 -26.1861 -81.2898 -74.3547 -25.9346 -81.1973 
-75.7223 -25.5459 -81.1266 -77.099 -25.065 -81.1061 -78.4706 -24.5219 -81.0996 
-79.8102 -23.9532 -81.0139 -81.0921 -23.3514 -80.8166 -82.077 -22.8082 -80.4858 
-83.579 -21.3574 -81.155 -83.0596 -21.974 -80.6469 -84.4229 -18.8621 -81.7806 
-84.2239 -19.7877 -81.1713 -83.7834 -20.9237 -80.5254 -84.6159 -15.3696 -82.27 
-84.6071 -16.0421 -81.546 -84.5421 -17.2277 -80.9965 -84.4471 -18.6555 -80.9672 
-84.9331 -13.2478 -82.3985 -84.8465 -14.1867 -81.5601 -84.9622 -13.164 -83.3663 
-84.7061 -15.1787 -81.5167 -85.307 -11.3045 -82.7183 -85.1089 -12.4061 -81.8169 
-85.3576 -11.2676 -83.2339 -85.7154 -9.53625 -83.1132 -85.7091 -9.48574 -83.0831 
-85.552 -10.3567 -83.17 -85.504 -10.4067 -82.2986 -85.7292 -9.47147 -83.1087 
-85.4728 -10.7104 -83.1951 -85.8781 -8.57013 -83.0482 -85.915 -8.24207 -83.0273 
-85.8412 -8.58583 -82.7226 -85.7338 -9.44457 -83.1069 -56.6337 -11.6597 -85.0311 
-56.8026 -11.9641 -85.038 -56.8035 -11.9261 -84.6578 -56.2113 -10.917 -85.015 
-57.0923 -12.4948 -85.0503 -57.4433 -13.1443 -85.0656 -57.4134 -13.0765 -84.2479 
-57.5494 -13.3416 -85.0703 -58.0205 -14.2361 -83.8363 -58.6383 -15.3841 -83.4428 
-59.2756 -16.5149 -83.0665 -59.9436 -17.6476 -82.7044 -60.6353 -18.7968 -82.3461 
-61.9224 -20.2831 -82.6242 -61.3788 -19.9328 -82.0741 -62.399 -21.1763 -82.0706 
-62.0567 -21.095 -81.5249 -62.5752 -21.7878 -81.2985 -62.9878 -22.0603 -81.6772 
-63.7884 -23.0649 -81.4808 -65.2523 -24.0096 -81.761 -64.5916 -23.7483 -81.5163 
-65.3327 -24.4269 -80.8357 -66.126 -24.9716 -80.3779 -66.9197 -25.1386 -80.8286 
-68.6809 -25.7133 -81.3532 -67.849 -25.4952 -81.0471 -68.7026 -25.9723 -80.4714 
-69.8701 -26.2921 -80.1475 -70.9631 -26.3844 -80.3878 -71.7016 -26.2982 -80.9658 
-71.7712 -26.4605 -80.1824 -72.9665 -26.359 -80.0704 -74.3074 -26.1108 -79.9736 
-75.7087 -25.8041 -79.8321 -77.2567 -25.251 -80.0457 -78.6141 -24.6958 -80.0685 
-79.937 -24.106 -79.9784 -81.2021 -23.478 -79.7829 -82.4308 -22.6782 -79.5119 
-83.3095 -21.7234 -79.688 -84.1994 -19.7906 -80.0492 -83.7955 -20.9032 -79.2418 
-84.6238 -16.1848 -80.5665 -84.4939 -17.3438 -79.5985 -84.4115 -18.5652 -79.8095 
-84.9822 -13.4187 -81.4776 -84.9484 -14.0414 -80.7977 -84.788 -15.0451 -80.3813 
-85.287 -11.3516 -81.481 -85.1379 -12.2991 -80.5539 -85.0571 -13.2719 -80.692 
-85.6828 -9.53133 -81.8697 -85.4826 -10.4503 -81.0654 -85.9084 -7.62778 -82.4427 
-85.7906 -8.59733 -81.5133 -85.9696 -7.62236 -82.9886 -86.3089 -5.04626 -82.821 
-86.3339 -4.94655 -82.771 -86.0849 -5.76946 -82.876 -86.034 -5.78292 -82.0747 
-86.3426 -4.94088 -82.8129 -86.0171 -6.65072 -82.9304 -86.0594 -6.02455 -82.8921 
-85.9508 -6.64681 -82.2317 -85.9935 -7.0922 -82.957 -86.3606 -4.90533 -82.8098 
-86.7767 -4.1271 -82.7398 -86.7718 -4.13239 -82.716 -87.1413 -3.45269 -82.6789 
-87.4997 -2.68858 -82.6133 -87.1018 -3.47998 -82.116 -86.7935 -4.09478 -82.7369 
-87.8279 -1.8196 -82.5435 -87.9753 -1.18104 -82.4981 -87.8347 -1.83231 -82.0231 
-87.5269 -2.62673 -82.608 -88.0729 1.14561 -82.3596 -88.0622 1.53915 -82.3379 
-88.082 1.09593 -82.0052 -88.1059 0.0967396 -82.4173 -88.102 0.186427 -82.4124 
-88.1044 0.0917341 -82.3337 -88.0878 -0.1716 -82.4337 -87.5512 5.2632 -82.1575 
-87.5356 5.37022 -82.1524 -87.5452 5.25893 -82.0672 -87.6393 4.82658 -82.1769 
-86.7327 9.41804 -81.9716 -86.7292 9.43718 -81.9707 -86.7154 9.41651 -81.9595 
-86.75 9.3456 -81.9747 -54.7082 -8.43193 -84.9664 -54.8211 -8.61382 -84.9698 
-54.8303 -8.58661 -84.7425 -54.3695 -7.88188 -84.956 -55.1948 -9.22329 -84.9814 
-55.4824 -9.69246 -84.9903 -55.4554 -9.64727 -84.3958 -55.6831 -10.0256 -84.9969 
-56.1492 -10.8088 -85.0126 -56.0845 -10.7384 -84.0155 -56.167 -10.8394 -85.0133 
-56.71 -11.8577 -83.6084 -57.3275 -13.0003 -83.1867 -57.9361 -14.1554 -82.766 
-58.5366 -15.3058 -82.3648 -59.1278 -16.4191 -82.0083 -59.7222 -17.539 -81.6252 
-60.3659 -18.7513 -81.2236 -61.0507 -19.9843 -80.8991 -61.7366 -21.15 -80.5861 
-62.9413 -22.4462 -80.7344 -62.4779 -22.1841 -80.3421 -63.075 -22.9773 -79.9615 
-47.385 4.81258 -84.6651 -47.4439 4.49164 -84.6797 -47.3782 4.48784 -84.4501 
-47.4867 4.32511 -84.6866 -47.6036 3.93557 -84.7015 -63.5475 -23.2622 -80.3158 
-64.5136 -24.1928 -80.1934 -65.4317 -24.9626 -79.7371 -47.2649 7.73924 -84.506 
-47.2549 7.47698 -84.5215 -47.1595 7.50391 -84.3178 -47.2482 7.34463 -84.5294 
-47.2257 6.22846 -84.5944 -47.1875 6.23543 -84.5057 -47.2246 6.15497 -84.5986 
-47.2371 5.98847 -84.6073 -66.1434 -25.5181 -79.2742 -66.7332 -25.4361 -79.9412 
-66.8942 -25.8247 -79.2879 -47.4491 11.1572 -84.3 -47.335 10.337 -84.3538 
-47.1249 10.5257 -83.7033 -47.2985 9.30866 -84.4146 -47.2954 9.19747 -84.4211 
-47.2548 9.22955 -84.3163 -47.2999 9.13908 -84.4241 -47.301 8.95171 -84.4347 
-67.5648 -25.7945 -79.9152 -68.4655 -26.3259 -79.1633 -47.6582 11.9177 -84.2438 
-47.461 11.8803 -83.7805 -47.8094 12.3276 -84.2112 -47.7828 12.7384 -83.7279 
-47.9506 12.7341 -84.1793 -47.4525 11.1729 -84.2989 -69.5728 -26.5866 -78.9088 
-48.2367 13.6086 -84.1119 -47.9828 13.8196 -83.0654 -48.4044 14.1667 -84.0697 
-48.4422 14.4802 -83.9218 -48.4828 14.4154 -84.0507 -48.1172 13.2604 -84.1391 
[...]
POINT_DATA 13638
SCALARS scalars float
LOOKUP_TABLE default
-1000 -1000 -1000 -1000 -1000 -1000 -1000 -1000 -1000 
-1000 -1000 -1000 -1000 -1000 -1000 -1000 -1000 -1000 
-1000 -1000 -1000 -1000 -1000 -1000 -1000 -1000 -1000 
-1000 -1000 -1000 -1000 -1000 -1000 -1000 -1000 -1000 
-1000 -1000 -1000 -1000 -1000 -1000 -1000 -1000 -1000 
-1000 -1000 -1000 -1000 -1000 -1000 -1000 -1000 -1000 
-1000 -1000 -1000 -1000 -1000 -1000 -1000 -1000 -1000 
-1000 -1000 -1000 -1000 -1000 -1000 -1000 -1000 -1000 
-1000 -1000 -1000 -1000 -1000 -1000 -1000 -1000 -1000 
-1000 -1000 -1000 -1000 -1000 -1000 -1000 -1000 -1000 
-1000 -1000 -1000 -1000 -1000 -1000 -1000 -1000 -1000 
-1000 -1000 -1000 -1000 -1000 -1000 -1000 -1000 -1000 
-1000 -1000 -1000 -1000 -1000 -1000 -1000 -1000 -1000 
-1000 -1000 -1000 -1000 -1000 -1000 -1000 -1000 -1000 
-1000 -1000 -1000 -1000 -1000 -1000 -1000 -1000 -1000 
-1000 -1000 -1000 -1000 -1000 -1000 -1000 -1000 -1000 
-1000 -1000 -1000 -1000 -1000 -1000 -1000 -1000 -1000 
-1000 -1000 -1000 -1000 -1000 -1000 -1000 -1000 -1000 
-1000 -1000 -1000 -1000 -1000 -1000 -1000 -1000 -1000 
-1000 -1000 -1000 -1000 -1000 -1000 -1000 -1000 -1000 
-1000 -1000 -1000 -1000 -1000 -1000 -1000 -1000 -1000 
-1000 -1000 -1000 -1000 -1000 -1000 -1000 -1000 -1000 
-1000 -1000 -1000 -1000 -1000 -1000 -1000 -1000 -1000 
-1000 -1000 -1000 -1000 -1000 -1000 -1000 -1000 -1000 
-1000 -1000 -1000 -1000 -1000 -1000 -1000 -1000 -1000 
-1000 -1000 -1000 -1000 -1000 -1000 -1000 -1000 -1000 
-1000 -1000 -1000 -1000 -1000 -1000 -1000 -1000 -1000 
-1000 -1000 -1000 -1000 -1000 -1000 -1000 -1000 -1000 
-1000 -1000 -1000 -1000 -1000 -1000 -1000 -1000 -1000 
-1000 -1000 -1000 -1000 -1000 -1000 -1000 -1000 -1000 
-1000 -1000 -1000 -1000 -1000 -1000 -1000 -1000 -1000 
-1000 -1000 -1000 -1000 -1000 -1000 -1000 -1000 -1000 
-1000 -1000 -1000 -1000 -1000 -1000 -1000 -1000 -1000 
-1000 -1000 -1000 -1000 -1000 -1000 -1000 -1000 -1000 
-1000 -1000 -1000 -1000 -1000 -1000 -1000 -1000 -1000 
-1000 -1000 -1000 -1000 -1000 -1000 -1000 -1000 -1000 
-1000 -1000 -1000 -1000 -1000 -1000 -1000 -1000 -1000 
-1000 -1000 -1000 -1000 -1000 -1000 -1000 -1000 -1000 
-1000 -1000 -1000 -1000 -1000 -1000 -1000 -1000 -1000 
-1000 -1000 -1000 -1000 -1000 -1000 -1000 -1000 -1000 
-1000 -1000 -1000 -1000 -1000 -1000 -1000 -1000 -1000 
-1000 -1000 -1000 -1000 -1000 -1000 -1000 -1000 -1000 
-1000 -1000 -1000 -1000 -1000 -1000 -1000 -1000 -1000 
-1000 -1000 -1000 -1000 -1000 -1000 -1000 -1000 -1000 
-1000 -1000 -1000 -1000 -1000 -1000 -1000 -1000 -1000 
-1000 -1000 -1000 -1000 -1000 -1000 -1000 -1000 -1000 
-1000 -1000 -1000 -1000 -1000 -1000 -1000 -1000 -1000 
-1000 -1000 -1000 -1000 -1000 -1000 -1000 -1000 -1000 
-1000 -1000 -1000 -1000 -1000 -1000 -1000 -1000 -1000 
-1000 -1000 -1000 -1000 -1000 -1000 -1000 -1000 -1000 
-1000 -1000 -1000 -1000 -1000 -1000 -1000 -1000 -1000 
-1000 -1000 -1000 -1000 -1000 -1000 -1000 -1000 -1000 
-1000 -1000 -1000 -1000 -1000 -1000 -1000 -1000 -1000 
-1000 -1000 -1000 -1000 -1000 -1000 -1000 -1000 -1000 
-1000 -1000 -1000 -1000 -1000 -1000 -1000 -1000 -1000 
-1000 -1000 -1000 -1000 -1000 -1000 -1000 -1000 -1000 
-1000 -1000 -1000 -1000 -1000 -1000 -1000 -1000 -1000 
-1000 -1000 -1000 -1000 -1000 -1000 -1000 -1000 -1000 
-1000 -1000 -1000 -1000 -1000 -1000 -1000 -1000 -1000 
-1000 -1000 -1000 -1000 -1000 -1000 -1000 -1000 -1000 
-1000 -1000 -1000 -1000 -1000 -1000 -1000 -1000 -1000 
-1000 -1000 -1000 -1000 -1000 -1000 -1000 -1000 -1000 
-1000 -1000 -1000 -1000 -1000 -1000 -1000 -1000 -1000 
-1000 -1000 -1000 -1000 -1000 -1000 -1000 -1000 -1000 
-1000 -1000 -1000 -1000 -1000 -1000 -1000 -1000 -1000 
-1000 -1000 -1000 -1000 -1000 -1000 -1000 -1000 -1000 
-1000 -1000 -1000 -1000 -1000 -1000 -1000 -1000 -1000 
-1000 -1000 -1000 -1000 -1000 -1000 -1000 -1000 -1000 
-1000 -1000 -1000 -1000 -1000 -1000 -1000 -1000 -1000 
-1000 -1000 -1000 -1000 -1000 -1000 -1000 -1000 -1000 
-1000 -1000 -1000 -1000 -1000 -1000 -1000 -1000 -1000 
-1000 -1000 -1000 -1000 -1000 -1000 -1000 -1000 -1000 
-1000 -1000 -1000 -1000 -1000 -1000 -1000 -1000 -1000 
-1000 -1000 -1000 -1000 -1000 -1000 -1000 -1000 -1000 
-1000 -1000 -1000 -1000 -1000 -1000 -1000 -1000 -1000 
-1000 -1000 -1000 -1000 -1000 -1000 -1000 -1000 -1000 
-1000 -1000 -1000 -1000 -1000 -1000 -1000 -1000 -1000 
-1000 -1000 -1000 -1000 -1000 -1000 -1000 -1000 -1000 
-1000 -1000 -1000 -1000 -1000 -1000 -1000 -1000 -1000 
-1000 -1000 -1000 -1000 -1000 -1000 -1000 -1000 -1000 
-1000 -1000 -1000 -1000 -1000 -1000 -1000 -1000 -1000 
-1000 -1000 -1000 -1000 -1000 -1000 -1000 -1000 -1000 
-1000 -1000 -1000 -1000 -1000 -1000 -1000 -1000 -1000 
-1000 -1000 -1000 -1000 -1000 -1000 -1000 -1000 -1000 
-1000 -1000 -1000 -1000 -1000 -1000 -1000 -1000 -1000 
-1000 -1000 -1000 -1000 -1000 -1000 -1000 -1000 -1000 
-1000 -1000 -1000 -1000 -1000 -1000 -1000 -1000 -1000 
-1000 -1000 -1000 -1000 -1000 -1000 -1000 -1000 -1000 
-1000 -1000 -1000 -1000 -1000 -1000 -1000 -1000 -1000 
-1000 -1000 -1000 -1000 -1000 -1000 -1000 -1000 -1000 
-1000 -1000 -1000 -1000 -1000 -1000 -1000 -1000 -1000 
-1000 -1000 -1000 -1000 -1000 -1000 -1000 -1000 -1000 
-1000 -1000 -1000 -1000 -1000 -1000 -1000 -1000 -1000 
-1000 -1000 -1000 -1000 -1000 -1000 -1000 -1000 -1000 
-1000 -1000 -1000 -1000 -1000 -1000 -1000 -1000 -1000 
-1000 -1000 -1000 -1000 -1000 -1000 -1000 -1000 -1000 
-1000 -1000 -1000 -1000 -1000 -1000 -1000 -1000 -1000 
-1000 -1000 -1000 -1000 -1000 -1000 -1000 -1000 -1000 
-1000 -1000 -1000 -1000 -1000 -1000 -1000 -1000 -1000 
-1000 -1000 -1000 -1000 -1000 -1000 -1000 -1000 -1000 
-1000 -1000 -1000 -1000 -1000 -1000 -1000 -1000 -1000 
-1000 -1000 -1000 -1000 -1000 -1000 -1000 -1000 -1000 
-1000 -1000 -1000 -1000 -1000 -1000 -1000 -1000 -1000 
-1000 -1000 -1000 -1000 -1000 -1000 -1000 -1000 -1000 
-1000 -1000 -1000 -1000 -1000 -1000 -1000 -1000 -1000 
-1000 -1000 -1000 -1000 -1000 -1000 -1000 -1000 -1000 
-1000 -1000 -1000 -1000 -1000 -1000 -1000 -1000 -1000 
-1000 -1000 -1000 -1000 -1000 -1000 -1000 -1000 -1000 
-1000 -1000 -1000 -1000 -1000 -1000 -1000 -1000 -1000 
-1000 -1000 -1000 -1000 -1000 -1000 -1000 -1000 -1000 
-1000 -1000 -1000 -1000 -1000 -1000 -1000 -1000 -1000 
-1000 -1000 -1000 -1000 -1000 -1000 -1000 -1000 -1000 
-1000 -1000 -1000 -1000 -1000 -1000 -1000 -1000 -1000 
-1000 -1000 -1000 -1000 -1000 -1000 -1000 -1000 -1000 
-1000 -1000 -1000 -1000 -1000 -1000 -1000 -1000 -1000 
-1000 -1000 -1000 -1000 -1000 -1000 -1000 -1000 -1000 
-1000 -1000 -1000 -1000 -1000 -1000 -1000 -1000 -1000 
-1000 -1000 -1000 -1000 -1000 -1000 -1000 -1000 -1000 
-1000 -1000 -1000 -1000 -1000 -1000 -1000 -1000 -1000 
-1000 -1000 -1000 -1000 -1000 -1000 -1000 -1000 -1000 
-1000 -1000 -1000 -1000 -1000 -1000 -1000 -1000 -1000 
-1000 -1000 -1000 -1000 -1000 -1000 -1000 -1000 -1000 
-1000 -1000 -1000 -1000 -1000 -1000 -1000 -1000 -1000 
-1000 -1000 -1000 -1000 -1000 -1000 -1000 -1000 -1000 
-1000 -1000 -1000 -1000 -1000 -1000 -1000 -1000 -1000 
-1000 -1000 -1000 -1000 -1000 -1000 -1000 -1000 -1000 
-1000 -1000 -1000 -1000 -1000 -1000 -1000 -1000 -1000 
-1000 -1000 -1000 -1000 -1000 -1000 -1000 -1000 -1000 
-1000 -1000 -1000 -1000 -1000 -1000 -1000 -1000 -1000 
-1000 -1000 -1000 -1000 -1000 -1000 -1000 -1000 -1000 
-1000 -1000 -1000 -1000 -1000 -1000 -1000 -1000 -1000 
-1000 -1000 -1000 -1000 -1000 -1000 -1000 -1000 -1000 
-1000 -1000 -1000 -1000 -1000 -1000 -1000 -1000 -1000 
-1000 -1000 -1000 -1000 -1000 -1000 -1000 -1000 -1000 
-1000 -1000 -1000 -1000 -1000 -1000 -1000 -1000 -1000 
-1000 -1000 -1000 -1000 -1000 -1000 -1000 -1000 -1000 
-1000 -1000 -1000 -1000 -1000 -1000 -1000 -1000 -1000 
-1000 -1000 -1000 -1000 -1000 -1000 -1000 -1000 -1000 
-1000 -1000 -1000 -1000 -1000 -1000 -1000 -1000 -1000 
-1000 -1000 -1000 -1000 -1000 -1000 -1000 -1000 -1000 
-1000 -1000 -1000 -1000 -1000 -1000 -1000 -1000 -1000 
-1000 -1000 -1000 -1000 -1000 -1000 -1000 -1000 -1000 
-1000 -1000 -1000 -1000 -1000 -1000 -1000 -1000 -1000 
-1000 -1000 -1000 -1000 -1000 -1000 -1000 -1000 -1000 
-1000 -1000 -1000 -1000 -1000 -1000 -1000 -1000 -1000 
-1000 -1000 -1000 -1000 -1000 -1000 -1000 -1000 -1000 
-1000 -1000 -1000 -1000 -1000 -1000 -1000 -1000 -1000 
-1000 -1000 -1000 -1000 -1000 -1000 -1000 -1000 -1000 
-1000 -1000 -1000 -1000 -1000 -1000 -1000 -1000 -1000 
-1000 -1000 -1000 -1000 -1000 -1000 -1000 -1000 -1000 
-1000 -1000 -1000 -1000 -1000 -1000 -1000 -1000 -1000 
-1000 -1000 -1000 -1000 -1000 -1000 -1000 -1000 -1000 
-1000 -1000 -1000 -1000 -1000 -1000 -1000 -1000 -1000 
-1000 -1000 -1000 -1000 -1000 -1000 -1000 -1000 -1000 
-1000 -1000 -1000 -1000 -1000 -1000 -1000 -1000 -1000 
-1000 -1000 -1000 -1000 -1000 -1000 -1000 -1000 -1000 
-1000 -1000 -1000 -1000 -1000 -1000 -1000 -1000 -1000 
-1000 -1000 -1000 -1000 -1000 -1000 -1000 -1000 -1000 
-1000 -1000 -1000 -1000 -1000 -1000 -1000 -1000 -1000 
-1000 -1000 -1000 -1000 -1000 -1000 -1000 -1000 -1000 
-1000 -1000 -1000 -1000 -1000 -1000 -1000 -1000 -1000 
-1000 -1000 -1000 -1000 -1000 -1000 -1000 -1000 -1000 
-1000 -1000 -1000 -1000 -1000 -1000 -1000 -1000 -1000 
-1000 -1000 -1000 -1000 -1000 -1000 -1000 -1000 -1000 
-1000 -1000 -1000 -1000 -1000 -1000 -1000 -1000 -1000 
-1000 -1000 -1000 -1000 -1000 -1000 -1000 -1000 -1000 
-1000 -1000 -1000 -1000 -1000 -1000 -1000 -1000 -1000 
-1000 -1000 -1000 -1000 -1000 -1000 -1000 -1000 -1000 
-1000 -1000 -1000 -1000 -1000 -1000 -1000 -1000 -1000 
-1000 -1000 -1000 -1000 -1000 -1000 -1000 -1000 -1000 
-1000 -1000 -1000 -1000 -1000 -1000 -1000 -1000 -1000 
-1000 -1000 -1000 -1000 -1000 -1000 -1000 -1000 -1000 
-1000 -1000 -1000 -1000 -1000 -1000 -1000 -1000 -1000 
-1000 -1000 -1000 -1000 -1000 -1000 -1000 -1000 -1000 
-1000 -1000 -1000 -1000 -1000 -1000 -1000 -1000 -1000 
-1000 -1000 -1000 -1000 -1000 -1000 -1000 -1000 -1000 
-1000 -1000 -1000 -1000 -1000 -1000 -1000 -1000 -1000 
-1000 -1000 -1000 -1000 -1000 -1000 -1000 -1000 -1000 
-1000 -1000 -1000 -1000 -1000 -1000 -1000 -1000 -1000 
-1000 -1000 -1000 -1000 -1000 -1000 -1000 -1000 -1000 
-1000 -1000 -1000 -1000 -1000 -1000 -1000 -1000 -1000 
-1000 -1000 -1000 -1000 -1000 -1000 -1000 -1000 -1000 
-1000 -1000 -1000 -1000 -1000 -1000 -1000 -1000 -1000 
-1000 -1000 -1000 -1000 -1000 -1000 -1000 -1000 -1000 
-1000 -1000 -1000 -1000 -1000 -1000 -1000 -1000 -1000 
-1000 -1000 -1000 -1000 -1000 -1000 -1000 -1000 -1000 
-1000 -1000 -1000 -1000 -1000 -1000 -1000 -1000 -1000 
-1000 -1000 -1000 -1000 -1000 -1000 -1000 -1000 -1000 
-1000 -1000 -1000 -1000 -1000 -1000 -1000 -1000 -1000 
-1000 -1000 -1000 -1000 -1000 -1000 -1000 -1000 -1000 
-1000 -1000 -1000 -1000 -1000 -1000 -1000 -1000 -1000 
-1000 -1000 -1000 -1000 -1000 -1000 -1000 -1000 -1000 
-1000 -1000 -1000 -1000 -1000 -1000 -1000 -1000 -1000 
-1000 -1000 -1000 -1000 -1000 -1000 -1000 -1000 -1000 
-1000 -1000 -1000 -1000 -1000 -1000 -1000 -1000 -1000 
-1000 -1000 -1000 -1000 -1000 -1000 -1000 -1000 -1000 
-1000 -1000 -1000 -1000 -1000 -1000 -1000 -1000 -1000 
-1000 -1000 -1000 -1000 -1000 -1000 -1000 -1000 -1000 
-1000 -1000 -1000 -1000 -1000 -1000 -1000 -1000 -1000 
-1000 -1000 -1000 -1000 -1000 -1000 -1000 -1000 -1000 
-1000 -1000 -1000 -1000 -1000 -1000 -1000 -1000 -1000 
-1000 -1000 -1000 -1000 -1000 -1000 -1000 -1000 -1000 
-1000 -1000 -1000 -1000 -1000 -1000 -1000 -1000 -1000 
-1000 -1000 -1000 -1000 -1000 -1000 -1000 -1000 -1000 
-1000 -1000 -1000 -1000 -1000 -1000 -1000 -1000 -1000 
-1000 -1000 -1000 -1000 -1000 -1000 -1000 -1000 -1000 
-1000 -1000 -1000 -1000 -1000 -1000 -1000 -1000 -1000 
-1000 -1000 -1000 -1000 -1000 -1000 -1000 -1000 -1000 
-1000 -1000 -1000 -1000 -1000 -1000 -1000 -1000 -1000 
-1000 -1000 -1000 -1000 -1000 -1000 -1000 -1000 -1000 
-1000 -1000 -1000 -1000 -1000 -1000 -1000 -1000 -1000 
-1000 -1000 -1000 -1000 -1000 -1000 -1000 -1000 -1000 
-1000 -1000 -1000 -1000 -1000 -1000 -1000 -1000 -1000 
-1000 -1000 -1000 -1000 -1000 -1000 -1000 -1000 -1000 
-1000 -1000 -1000 -1000 -1000 -1000 -1000 -1000 -1000 
-1000 -1000 -1000 -1000 -1000 -1000 -1000 -1000 -1000 
-1000 -1000 -1000 -1000 -1000 -1000 -1000 -1000 -1000 
-1000 -1000 -1000 -1000 -1000 -1000 -1000 -1000 -1000 
-1000 -1000 -1000 -1000 -1000 -1000 -1000 -1000 -1000 
-1000 -1000 -1000 -1000 -1000 -1000 -1000 -1000 -1000 
-1000 -1000 -1000 -1000 -1000 -1000 -1000 -1000 -1000 
-1000 -1000 -1000 -1000 -1000 -1000 -1000 -1000 -1000 
-1000 -1000 -1000 -1000 -1000 -1000 -1000 -1000 -1000 
-1000 -1000 -1000 -1000 -1000 -1000 -1000 -1000 -1000 
-1000 -1000 -1000 -1000 -1000 -1000 -1000 -1000 -1000 
-1000 -1000 -1000 -1000 -1000 -1000 -1000 -1000 -1000 
-1000 -1000 -1000 -1000 -1000 -1000 -1000 -1000 -1000 
-1000 -1000 -1000 -1000 -1000 -1000 -1000 -1000 -1000 
-1000 -1000 -1000 -1000 -1000 -1000 -1000 -1000 -1000 
-1000 -1000 -1000 -1000 -1000 -1000 -1000 -1000 -1000 
-1000 -1000 -1000 -1000 -1000 -1000 -1000 -1000 -1000 
-1000 -1000 -1000 -1000 -1000 -1000 -1000 -1000 -1000 
-1000 -1000 -1000 -1000 -1000 -1000 -1000 -1000 -1000 
-1000 -1000 -1000 -1000 -1000 -1000 -1000 -1000 -1000 
-1000 -1000 -1000 -1000 -1000 -1000 -1000 -1000 -1000 
-1000 -1000 -1000 -1000 -1000 -1000 -1000 -1000 -1000 
-1000 -1000 -1000 -1000 -1000 -1000 -1000 -1000 -1000 
-1000 -1000 -1000 -1000 -1000 -1000 -1000 -1000 -1000 
-1000 -1000 -1000 -1000 -1000 -1000 -1000 -1000 -1000 
-1000 -1000 -1000 -1000 -1000 -1000 -1000 -1000 -1000 
-1000 -1000 -1000 -1000 -1000 -1000 -1000 -1000 -1000 
-1000 -1000 -1000 -1000 -1000 -1000 -1000 -1000 -1000 
-1000 -1000 -1000 -1000 -1000 -1000 -1000 -1000 -1000 
-1000 -1000 -1000 -1000 -1000 -1000 -1000 -1000 -1000 
-1000 -1000 -1000 -1000 -1000 -1000 -1000 -1000 -1000 
-1000 -1000 -1000 -1000 -1000 -1000 -1000 -1000 -1000 
-1000 -1000 -1000 -1000 -1000 -1000 -1000 -1000 -1000 
-1000 -1000 -1000 -1000 -1000 -1000 -1000 -1000 -1000 
-1000 -1000 -1000 -1000 -1000 -1000 -1000 -1000 -1000 
-1000 -1000 -1000 -1000 -1000 -1000 -1000 -1000 -1000 
-1000 -1000 -1000 -1000 -1000 -1000 -1000 -1000 -1000 
-1000 -1000 -1000 -1000 -1000 -1000 -1000 -1000 -1000 
-1000 -1000 -1000 -1000 -1000 -1000 -1000 -1000 -1000 
-1000 -1000 -1000 -1000 -1000 -1000 -1000 -1000 -1000 
-1000 -1000 -1000 -1000 -1000 -1000 -1000 -1000 -1000 
-1000 -1000 -1000 -1000 -1000 -1000 -1000 -1000 -1000 
-1000 -1000 -1000 -1000 -1000 -1000 -1000 -1000 -1000 
-1000 -1000 -1000 -1000 -1000 -1000 -1000 -1000 -1000 
-1000 -1000 -1000 -1000 -1000 -1000 -1000 -1000 -1000 
-1000 -1000 -1000 -1000 -1000 -1000 -1000 -1000 -1000 
-1000 -1000 -1000 -1000 -1000 -1000 -1000 -1000 -1000 
-1000 -1000 -1000 -1000 -1000 -1000 -1000 -1000 -1000 
-1000 -1000 -1000 -1000 -1000 -1000 -1000 -1000 -1000 
-1000 -1000 -1000 -1000 -1000 -1000 -1000 -1000 -1000 
-1000 -1000 -1000 -1000 -1000 -1000 -1000 -1000 -1000 
-1000 -1000 -1000 -1000 -1000 -1000 -1000 -1000 -1000 
-1000 -1000 -1000 -1000 -1000 -1000 -1000 -1000 -1000 
-1000 -1000 -1000 -1000 -1000 -1000 -1000 -1000 -1000 
-1000 -1000 -1000 -1000 -1000 -1000 -1000 -1000 -1000 
-1000 -1000 -1000 -1000 -1000 -1000 -1000 -1000 -1000 
-1000 -1000 -1000 -1000 -1000 -1000 -1000 -1000 -1000 
-1000 -1000 -1000 -1000 -1000 -1000 -1000 -1000 -1000 
-1000 -1000 -1000 -1000 -1000 -1000 -1000 -1000 -1000 
-1000 -1000 -1000 -1000 -1000 -1000 -1000 -1000 -1000 
-1000 -1000 -1000 -1000 -1000 -1000 -1000 -1000 -1000 
-1000 -1000 -1000 -1000 -1000 -1000 -1000 -1000 -1000 
-1000 -1000 -1000 -1000 -1000 -1000 -1000 -1000 -1000 
-1000 -1000 -1000 -1000 -1000 -1000 -1000 -1000 -1000 
-1000 -1000 -1000 -1000 -1000 -1000 -1000 -1000 -1000 
-1000 -1000 -1000 -1000 -1000 -1000 -1000 -1000 -1000 
-1000 -1000 -1000 -1000 -1000 -1000 -1000 -1000 -1000 
-1000 -1000 -1000 -1000 -1000 -1000 -1000 -1000 -1000 
-1000 -1000 -1000 -1000 -1000 -1000 -1000 -1000 -1000 
-1000 -1000 -1000 -1000 -1000 -1000 -1000 -1000 -1000 
-1000 -1000 -1000 -1000 -1000 -1000 -1000 -1000 -1000 
-1000 -1000 -1000 -1000 -1000 -1000 -1000 -1000 -1000 
-1000 -1000 -1000 -1000 -1000 -1000 -1000 -1000 -1000 
-1000 -1000 -1000 -1000 -1000 -1000 -1000 -1000 -1000 
-1000 -1000 -1000 -1000 -1000 -1000 -1000 -1000 -1000 
-1000 -1000 -1000 -1000 -1000 -1000 -1000 -1000 -1000 
-1000 -1000 -1000 -1000 -1000 -1000 -1000 -1000 -1000 
-1000 -1000 -1000 -1000 -1000 -1000 -1000 -1000 -1000 
-1000 -1000 -1000 -1000 -1000 -1000 -1000 -1000 -1000 
-1000 -1000 -1000 -1000 -1000 -1000 -1000 -1000 -1000 
-1000 -1000 -1000 -1000 -1000 -1000 -1000 -1000 -1000 
-1000 -1000 -1000 -1000 -1000 -1000 -1000 -1000 -1000 
-1000 -1000 -1000 -1000 -1000 -1000 -1000 -1000 -1000 
-1000 -1000 -1000 -1000 -1000 -1000 -1000 -1000 -1000 
-1000 -1000 -1000 -1000 -1000 -1000 -1000 -1000 -1000 
-1000 -1000 -1000 -1000 -1000 -1000 -1000 -1000 -1000 
-1000 -1000 -1000 -1000 -1000 -1000 -1000 -1000 -1000 
-1000 -1000 -1000 -1000 -1000 -1000 -1000 -1000 -1000 
-1000 -1000 -1000 -1000 -1000 -1000 -1000 -1000 -1000 
-1000 -1000 -1000 -1000 -1000 -1000 -1000 -1000 -1000 
-1000 -1000 -1000 -1000 -1000 -1000 -1000 -1000 -1000 
-1000 -1000 -1000 -1000 -1000 -1000 -1000 -1000 -1000 
-1000 -1000 -1000 -1000 -1000 -1000 -1000 -1000 -1000 
-1000 -1000 -1000 -1000 -1000 -1000 -1000 -1000 -1000 
-1000 -1000 -1000 -1000 -1000 -1000 -1000 -1000 -1000 
-1000 -1000 -1000 -1000 -1000 -1000 -1000 -1000 -1000 
-1000 -1000 -1000 -1000 -1000 -1000 -1000 -1000 -1000 
-1000 -1000 -1000 -1000 -1000 -1000 -1000 -1000 -1000 
-1000 -1000 -1000 -1000 -1000 -1000 -1000 -1000 -1000 
-1000 -1000 -1000 -1000 -1000 -1000 -1000 -1000 -1000 
-1000 -1000 -1000 -1000 -1000 -1000 -1000 -1000 -1000 
-1000 -1000 -1000 -1000 -1000 -1000 -1000 -1000 -1000 
-1000 -1000 -1000 -1000 -1000 -1000 -1000 -1000 -1000 
-1000 -1000 -1000 -1000 -1000 -1000 -1000 -1000 -1000 
-1000 -1000 -1000 -1000 -1000 -1000 -1000 -1000 -1000 
-1000 -1000 -1000 -1000 -1000 -1000 -1000 -1000 -1000 
-1000 -1000 -1000 -1000 -1000 -1000 -1000 -1000 -1000 
-1000 -1000 -1000 -1000 -1000 -1000 -1000 -1000 -1000 
-1000 -1000 -1000 -1000 -1000 -1000 -1000 -1000 -1000 
-1000 -1000 -1000 -1000 -1000 -1000 -1000 -1000 -1000 
-1000 -1000 -1000 -1000 -1000 -1000 -1000 -1000 -1000 
-1000 -1000 -1000 -1000 -1000 -1000 -1000 -1000 -1000 
-1000 -1000 -1000 -1000 -1000 -1000 -1000 -1000 -1000 
-1000 -1000 -1000 -1000 -1000 -1000 -1000 -1000 -1000 
-1000 -1000 -1000 -1000 -1000 -1000 -1000 -1000 -1000 
-1000 -1000 -1000 -1000 -1000 -1000 -1000 -1000 -1000 
-1000 -1000 -1000 -1000 -1000 -1000 -1000 -1000 -1000 
-1000 -1000 -1000 -1000 -1000 -1000 -1000 -1000 -1000 
-1000 -1000 -1000 -1000 -1000 -1000 -1000 -1000 -1000 
-1000 -1000 -1000 -1000 -1000 -1000 -1000 -1000 -1000 
-1000 -1000 -1000 -1000 -1000 -1000 -1000 -1000 -1000 
-1000 -1000 -1000 -1000 -1000 -1000 -1000 -1000 -1000 
-1000 -1000 -1000 -1000 -1000 -1000 -1000 -1000 -1000 
-1000 -1000 -1000 -1000 -1000 -1000 -1000 -1000 -1000 
-1000 -1000 -1000 -1000 -1000 -1000 -1000 -1000 -1000 
-1000 -1000 -1000 -1000 -1000 -1000 -1000 -1000 -1000 
-1000 -1000 -1000 -1000 -1000 -1000 -1000 -1000 -1000 
-1000 -1000 -1000 -1000 -1000 -1000 -1000 -1000 -1000 
-1000 -1000 -1000 -1000 -1000 -1000 -1000 -1000 -1000 
-1000 -1000 -1000 -1000 -1000 -1000 -1000 -1000 -1000 
-1000 -1000 -1000 -1000 -1000 -1000 -1000 -1000 -1000 
-1000 -1000 -1000 -1000 -1000 -1000 -1000 -1000 -1000 
-1000 -1000 -1000 -1000 -1000 -1000 -1000 -1000 -1000 
-1000 -1000 -1000 -1000 -1000 -1000 -1000 -1000 -1000 
-1000 -1000 -1000 -1000 -1000 -1000 -1000 -1000 -1000 
-1000 -1000 -1000 -1000 -1000 -1000 -1000 -1000 -1000 
-1000 -1000 -1000 -1000 -1000 -1000 -1000 -1000 -1000 
-1000 -1000 -1000 -1000 -1000 -1000 -1000 -1000 -1000 
-1000 -1000 -1000 -1000 -1000 -1000 -1000 -1000 -1000 
-1000 -1000 -1000 -1000 -1000 -1000 -1000 -1000 -1000 
-1000 -1000 -1000 -1000 -1000 -1000 -1000 -1000 -1000 
-1000 -1000 -1000 -1000 -1000 -1000 -1000 -1000 -1000 