# vtk DataFile Version 3.0
vtk output
ASCII
DATASET POLYDATA
POINTS 17746 float
-79.9319 -1.40945 -17.8578 -79.258 -2.36519 -17.517 -78.8761 -1.83915 -17.48 
-81.0393 -1.38917 -18.0867 -80.1717 -2.3164 -17.7507 -81.0907 -2.08299 -17.9445 
-77.9854 -0.606629 -17.2898 -77.2343 -1.39165 -16.9488 -76.9769 -0.538387 -16.8889 
-79.1228 -0.747892 -17.6854 -78.0495 -1.65891 -17.2213 -80.257 -0.313 -18.0812 
-81.128 -0.385029 -18.2512 -81.7895 -1.42006 -18.1422 -82.2309 -0.399205 -18.328 
-83.2775 -0.058809 -18.3158 -82.6894 -1.00971 -18.208 -83.6228 -0.445827 -18.2125 
-77.8644 0.640464 -17.2925 -76.7916 0.352065 -16.8445 -79.0378 0.493887 -17.7069 
-80.1559 0.562724 -18.0623 -81.2008 0.671142 -18.3241 -82.2533 0.759214 -18.4202 
-83.3093 0.827535 -18.3583 -84.252 0.697764 -18.167 -77.1473 1.61568 -17.0632 
-76.2178 0.690393 -16.6126 -76.0839 1.41907 -16.6183 -78.3451 1.90733 -17.4817 
-79.1928 1.72748 -17.7351 -80.2374 1.69183 -18.0374 -81.308 1.76123 -18.2711 
-82.1846 1.70298 -18.3907 -83.3549 2.07262 -18.2525 -84.1756 1.71155 -18.1273 
-76.4656 2.5789 -16.8682 -75.5775 1.81413 -16.4165 -75.5251 2.80946 -16.4359 
-77.5204 2.94996 -17.2648 -78.3634 2.87641 -17.4816 -79.4147 2.92954 -17.7365 
-80.4786 2.90117 -17.979 -81.3528 2.73768 -18.1703 -82.6942 3.09202 -18.1728 
-84.086 3.37477 -17.8683 -84.54 2.67861 -17.8385 -76.4396 3.88022 -16.8912 
-75.5548 4.0089 -16.4313 -77.452 3.90652 -17.2535 -78.4664 3.97743 -17.4987 
-79.5289 4.07757 -17.6704 -80.7019 4.16342 -17.8419 -81.9709 4.06246 -18.0069 
-83.2536 4.44852 -17.9349 -83.9006 4.16496 -17.8455 -76.5305 5.08753 -16.8676 
-75.7316 5.22277 -16.3928 -77.5235 5.07903 -17.2319 -78.6031 5.09788 -17.4553 
-79.4833 4.99912 -17.5842 -80.7646 5.46676 -17.6 -81.9977 5.35611 -17.7173 
-83.2064 5.38872 -17.7417 -76.694 6.1919 -16.7544 -76.0882 6.38533 -16.3071 
-77.6192 6.21158 -17.1098 -78.743 6.26241 -17.3247 -80.0249 6.24002 -17.4111 
-81.3277 6.67915 -17.3118 -82.1985 6.4907 -17.3926 -83.0883 6.29158 -17.5054 
-76.9059 7.01894 -16.567 -76.7171 7.3623 -16.2384 -77.702 7.17065 -16.8332 
-78.792 7.30529 -17.0482 -79.9678 7.36767 -17.1379 -81.1912 7.49118 -17.0928 
-77.6974 7.88775 -16.4339 -78.8524 8.18162 -16.6397 -80.043 8.3114 -16.7824 
-81.0175 8.25619 -16.8592 -79.5505 -5.03738 -17.3463 -78.9621 -5.91278 -17.1879 
-78.5408 -5.37164 -17.1058 -80.7458 -5.09383 -17.5705 -79.8474 -6.01135 -17.3613 
-81.8729 -5.01889 -17.7258 -80.9441 -6.00818 -17.5296 -82.9228 -4.87086 -17.8024 
-82.0581 -5.83592 -17.647 -83.004 -5.49833 -17.7098 -77.3005 -4.13561 -16.8379 
-76.7438 -4.88044 -16.6881 -76.3398 -4.23442 -16.5933 -78.5677 -4.40695 -17.1522 
-77.6468 -5.16156 -16.9025 -79.6935 -4.01171 -17.4356 -80.6708 -4.07999 -17.6182 
-81.8163 -4.02959 -17.7993 -82.9758 -3.91917 -17.9392 -83.6584 -4.81609 -17.8063 
-84.1078 -3.8776 -17.9938 -84.3875 -4.40341 -17.8838 -76.3157 -3.23199 -16.6071 
-75.6457 -3.90816 -16.4434 -75.2964 -3.24249 -16.3676 -77.3978 -3.21874 -16.8979 
-78.1297 -3.5722 -17.0812 -79.22 -3.24561 -17.3886 -80.6277 -3.01249 -17.7032 
-81.841 -2.96262 -17.8638 -83.0558 -2.80124 -18.0192 -84.2717 -2.69074 -18.1525 
-85.0633 -3.68772 -18.036 -85.5236 -2.63679 -18.2086 -86.6647 -2.27123 -18.1695 
-86.0448 -3.23425 -18.0792 -87.1731 -2.653 -17.9293 -75.3511 -2.26841 -16.3441 
-74.6199 -2.90562 -16.196 -74.3365 -2.25992 -16.0614 -76.2341 -2.35927 -16.5901 
-77.0848 -2.32906 -16.8446 -78.26 -2.65411 -17.1821 -81.8664 -2.04285 -17.9925 
-83.1498 -1.5878 -18.0951 -84.3874 -1.46633 -18.1749 -85.5972 -1.38524 -18.2552 
-86.7324 -1.36343 -18.1885 -87.5694 -1.57174 -17.9319 -74.5161 -1.35397 -15.9974 
-73.7355 -1.9 -15.8054 -73.56 -1.05421 -15.5936 -75.4179 -1.20956 -16.2969 
-76.2945 -1.52068 -16.6071 -84.4512 -0.305193 -18.1483 -85.6919 -0.0394861 -18.1081 
-86.7988 -0.207015 -18.0827 -87.9241 -0.27009 -17.7205 -74.3245 -0.252527 -15.8028 
-73.4448 -0.0235844 -15.4056 -75.0818 -0.508638 -16.1326 -75.9813 -0.330633 -16.4803 
-85.3218 0.907849 -17.9667 -86.1642 1.1203 -17.8416 -86.885 0.921794 -17.8195 
-87.7074 0.734715 -17.6757 -74.168 0.817753 -15.6762 -73.3974 0.869156 -15.3215 
-75.2591 0.65779 -16.1941 -85.1655 1.99731 -17.7832 -85.9742 1.78588 -17.6738 
-73.8184 1.90605 -15.5167 -72.9514 1.34668 -15.1643 -72.946 2.32755 -15.1549 
-74.8073 1.81219 -16.0187 -84.9895 3.53093 -17.5229 -85.3887 3.04044 -17.4816 
-73.8652 3.24566 -15.5074 -73.0511 3.55555 -15.1049 -74.6871 2.98652 -15.9672 
-84.4859 5.29663 -17.6188 -85.0272 4.39997 -17.4765 -74.0516 4.5208 -15.4639 
-73.2753 4.81094 -15.031 -74.7905 4.23709 -15.9404 -84.4494 6.64913 -17.4584 
-85.728 5.40073 -17.3287 -85.9824 6.50769 -17.378 -87.2279 6.90932 -17.2313 
-87.0992 5.91337 -17.004 -87.912 6.8463 -16.9963 -74.399 5.8347 -15.3967 
-73.5787 6.08601 -14.9461 -75.0972 5.5234 -15.8909 -82.3904 7.56429 -17.078 
-83.639 7.4527 -17.2148 -84.9621 7.87361 -17.2647 -85.9258 7.73378 -17.3459 
-87.0719 7.71361 -17.2931 -88.0254 7.64561 -17.0836 -74.8049 7.16557 -15.2907 
-73.9132 7.3611 -14.8511 -75.7782 7.01167 -15.8184 -82.345 8.66079 -16.7699 
-83.641 8.6289 -16.8977 -84.8614 8.74331 -17.0561 -86.0442 8.86668 -17.1833 
-87.1293 8.81193 -17.2064 -88.1037 8.65624 -17.0675 -75.1536 8.42765 -15.1559 
-74.2737 8.58841 -14.7455 -76.2113 8.39459 -15.5738 -77.4222 8.47105 -15.9853 
-78.9122 8.98128 -16.2265 -80.2014 9.21846 -16.3932 -81.5423 9.29395 -16.5268 
-82.8632 9.75414 -16.5082 -83.7613 9.70395 -16.641 -84.8861 9.79515 -16.8142 
-86.0685 9.95213 -16.9875 -87.3724 10.0959 -17.0545 -88.2155 9.71721 -16.9971 
-75.4143 9.53292 -15.004 -74.6697 9.54855 -14.6709 -76.5016 9.62057 -15.3947 
-77.743 9.71531 -15.7075 -79.0492 9.91437 -15.9243 -80.3407 10.1514 -16.0827 
-81.5755 10.3256 -16.214 -82.7768 10.5215 -16.3125 -83.8807 10.6995 -16.4207 
-84.9382 10.8345 -16.5859 -86.0471 11.0097 -16.7803 -87.218 11.1976 -16.9164 
-88.4497 10.589 -16.9271 -88.4348 11.3936 -16.8701 -89.0312 11.1211 -16.7646 
-75.4404 10.2646 -14.8213 -75.8283 11.1631 -14.8045 -76.6081 10.7909 -15.1905 
-77.9601 10.8767 -15.5506 -79.2565 10.9947 -15.7447 -80.5057 11.1502 -15.8752 
-81.6913 11.3145 -15.9906 -82.8251 11.4807 -16.1022 -83.9155 11.657 -16.2212 
-84.9735 11.8395 -16.3737 -86.0337 12.0335 -16.5649 -87.1256 12.2252 -16.7353 
-88.2367 12.3624 -16.7562 -89.327 11.7044 -16.6113 -89.2485 12.3786 -16.5262 
-89.985 12.0869 -16.0844 -77.0317 12.0577 -15.1231 -76.1638 12.2191 -14.7634 
-78.1457 12.0173 -15.4371 -79.4145 12.0819 -15.6269 -80.6486 12.1866 -15.7331 
-81.8072 12.3175 -15.8236 -82.9005 12.4675 -15.9232 -83.9525 12.6367 -16.0394 
-84.9827 12.8276 -16.1845 -86.0125 13.0352 -16.3637 -87.0618 13.2327 -16.5332 
-88.1345 13.3533 -16.5724 -89.1768 13.2985 -16.3451 -90.0577 12.9766 -15.8525 
-77.2216 13.0539 -15.0133 -76.491 13.0667 -14.7308 -78.2859 13.1135 -15.3189 
-79.5162 13.1504 -15.5178 -80.738 13.2199 -15.6164 -81.883 13.3227 -15.6885 
-82.952 13.4568 -15.7747 -83.9721 13.6205 -15.8856 -84.9707 13.8126 -16.027 
-85.9693 14.0273 -16.1974 -86.989 14.2356 -16.3562 -88.0429 14.3621 -16.3874 
-89.0996 14.2894 -16.1384 -90.066 13.9152 -15.5681 -77.1659 13.7117 -14.8561 
-77.3615 14.5625 -14.8075 -78.2324 14.2029 -15.1258 -79.552 14.2109 -15.3856 
-80.7723 14.248 -15.502 -81.9076 14.3276 -15.5723 -82.9614 14.4474 -15.6534 
-83.9577 14.6058 -15.7623 -84.9277 14.7993 -15.9022 -85.8947 15.0153 -16.0686 
-86.8814 15.234 -16.2212 -87.917 15.3891 -16.248 -88.9898 15.3369 -15.9842 
-90.0104 14.9461 -15.3494 -78.3781 15.5662 -15.0271 -77.3495 15.4448 -14.762 
-79.569 15.3227 -15.2579 -80.7581 15.2929 -15.3891 -81.88 15.3458 -15.4708 
-82.9224 15.4511 -15.557 -83.9014 15.5976 -15.6677 -84.8454 15.7866 -15.8016 
-85.788 16.0032 -15.9549 -86.7283 16.1987 -16.1051 -87.7114 16.3957 -16.1441 
-88.8024 16.4469 -15.9042 -89.9016 16.0922 -15.2471 -77.6887 16.4939 -14.8574 
-76.7757 15.861 -14.6353 -76.6381 16.7862 -14.6241 -78.741 16.6866 -15.0645 
-79.6114 16.4496 -15.1834 -80.7066 16.3652 -15.2929 -81.7981 16.3907 -15.3808 
-82.8321 16.4813 -15.4755 -83.8076 16.6093 -15.5884 -84.7219 16.7528 -15.7116 
-85.6318 16.9728 -15.823 -86.5843 17.1749 -15.9396 -87.4077 17.1743 -16.0364 
-88.4171 17.5911 -15.8502 -89.7116 17.4205 -15.2932 -77.4802 17.6562 -14.7884 
-76.5757 17.8861 -14.5643 -78.4996 17.5626 -14.9853 -79.5464 17.5011 -15.1209 
-80.5946 17.4351 -15.2067 -81.6552 17.4515 -15.2804 -82.6855 17.5302 -15.3722 
-83.671 17.643 -15.4843 -84.6143 17.7466 -15.591 -85.3862 17.7387 -15.6874 
-86.3428 18.2334 -15.6594 -87.5072 18.2135 -15.766 -88.456 18.6124 -15.6407 
-89.1692 18.3923 -15.5098 -77.342 18.6429 -14.6694 -76.6734 18.7568 -14.4892 
-78.2852 18.593 -14.8536 -79.3544 18.5202 -14.9992 -80.4062 18.4515 -15.0911 
-81.4346 18.475 -15.1279 -82.4708 18.5639 -15.1751 -83.4771 18.6523 -15.2799 
-84.4572 18.7558 -15.3795 -85.5156 18.8129 -15.4385 -86.4457 19.2645 -15.3251 
-87.2309 19.1959 -15.4163 -88.0599 19.1512 -15.4856 -77.181 19.3265 -14.5085 
-77.4139 20.0814 -14.3325 -78.0357 19.6003 -14.6039 -79.1435 19.521 -14.767 
-80.233 19.4283 -14.8652 -81.1202 19.2686 -14.9426 -82.1457 19.595 -14.8113 
-83.2452 19.5818 -14.9105 -84.2164 19.6672 -15.0286 -85.1564 19.7573 -15.1014 
-86.0763 19.936 -15.0824 -78.1551 20.4451 -14.3304 -77.8288 20.845 -14.1069 
-78.9586 20.4149 -14.4232 -80.0461 20.3587 -14.4962 -81.2384 20.2121 -14.5457 
-82.2371 20.4975 -14.3545 -83.0514 20.4354 -14.4374 -83.9922 20.4844 -14.5758 
-84.9119 20.5876 -14.7219 -85.6898 20.5883 -14.8297 -78.6976 21.1413 -14.0762 
-79.776 21.2008 -14.0938 -80.8999 21.1325 -14.1204 -81.8186 21.0032 -14.1294 
-81.6644 -9.42114 -17.8527 -81.2267 -10.2499 -17.6329 -80.7165 -9.78281 -17.5989 
-82.8257 -9.42889 -18.0653 -82.1404 -10.2563 -17.7956 -83.8257 -9.38391 -18.157 
-83.1971 -10.1565 -17.9439 -84.0035 -9.96614 -18.0209 -37.9812 -9.68953 -17.0942 
-37.4715 -10.6389 -16.7012 -37.0096 -9.96547 -16.8838 -39.1704 -9.94852 -17.1047 
[...]
POINT_DATA 17746
SCALARS scalars float
LOOKUP_TABLE default
-1000 -1000 -1000 -1000 -1000 -1000 -1000 -1000 -1000 
-1000 -1000 -1000 -1000 -1000 -1000 -1000 -1000 -1000 
-1000 -1000 -1000 -1000 -1000 -1000 -1000 -1000 -1000 
-1000 -1000 -1000 -1000 -1000 -1000 -1000 -1000 -1000 
-1000 -1000 -1000 -1000 -1000 -1000 -1000 -1000 -1000 
-1000 -1000 -1000 -1000 -1000 -1000 -1000 -1000 -1000 
-1000 -1000 -1000 -1000 -1000 -1000 -1000 -1000 -1000 
-1000 -1000 -1000 -1000 -1000 -1000 -1000 -1000 -1000 
-1000 -1000 -1000 -1000 -1000 -1000 -1000 -1000 -1000 
-1000 -1000 -1000 -1000 -1000 -1000 -1000 -1000 -1000 
-1000 -1000 -1000 -1000 -1000 -1000 -1000 -1000 -1000 
-1000 -1000 -1000 -1000 -1000 -1000 -1000 -1000 -1000 
-1000 -1000 -1000 -1000 -1000 -1000 -1000 -1000 -1000 
-1000 -1000 -1000 -1000 -1000 -1000 -1000 -1000 -1000 
-1000 -1000 -1000 -1000 -1000 -1000 -1000 -1000 -1000 
-1000 -1000 -1000 -1000 -1000 -1000 -1000 -1000 -1000 
-1000 -1000 -1000 -1000 -1000 -1000 -1000 -1000 -1000 
-1000 -1000 -1000 -1000 -1000 -1000 -1000 -1000 -1000 
-1000 -1000 -1000 -1000 -1000 -1000 -1000 -1000 -1000 
-1000 -1000 -1000 -1000 -1000 -1000 -1000 -1000 -1000 
-1000 -1000 -1000 -1000 -1000 -1000 -1000 -1000 -1000 
-1000 -1000 -1000 -1000 -1000 -1000 -1000 -1000 -1000 
-1000 -1000 -1000 -1000 -1000 -1000 -1000 -1000 -1000 
-1000 -1000 -1000 -1000 -1000 -1000 -1000 -1000 -1000 
-1000 -1000 -1000 -1000 -1000 -1000 -1000 -1000 -1000 
-1000 -1000 -1000 -1000 -1000 -1000 -1000 -1000 -1000 
-1000 -1000 -1000 -1000 -1000 -1000 -1000 -1000 -1000 
-1000 -1000 -1000 -1000 -1000 -1000 -1000 -1000 -1000 
-1000 -1000 -1000 -1000 -1000 -1000 -1000 -1000 -1000 
-1000 -1000 -1000 -1000 -1000 -1000 -1000 -1000 -1000 
-1000 -1000 -1000 -1000 -1000 -1000 -1000 -1000 -1000 
-1000 -1000 -1000 -1000 -1000 -1000 -1000 -1000 -1000 
-1000 -1000 -1000 -1000 -1000 -1000 -1000 -1000 -1000 
-1000 -1000 -1000 -1000 -1000 -1000 -1000 -1000 -1000 
-1000 -1000 -1000 -1000 -1000 -1000 -1000 -1000 -1000 
-1000 -1000 -1000 -1000 -1000 -1000 -1000 -1000 -1000 
-1000 -1000 -1000 -1000 -1000 -1000 -1000 -1000 -1000 
-1000 -1000 -1000 -1000 -1000 -1000 -1000 -1000 -1000 
-1000 -1000 -1000 -1000 -1000 -1000 -1000 -1000 -1000 
-1000 -1000 -1000 -1000 -1000 -1000 -1000 -1000 -1000 
-1000 -1000 -1000 -1000 -1000 -1000 -1000 -1000 -1000 
-1000 -1000 -1000 -1000 -1000 -1000 -1000 -1000 -1000 
-1000 -1000 -1000 -1000 -1000 -1000 -1000 -1000 -1000 
-1000 -1000 -1000 -1000 -1000 -1000 -1000 -1000 -1000 
-1000 -1000 -1000 -1000 -1000 -1000 -1000 -1000 -1000 
-1000 -1000 -1000 -1000 -1000 -1000 -1000 -1000 -1000 
-1000 -1000 -1000 -1000 -1000 -1000 -1000 -1000 -1000 
-1000 -1000 -1000 -1000 -1000 -1000 -1000 -1000 -1000 
-1000 -1000 -1000 -1000 -1000 -1000 -1000 -1000 -1000 
-1000 -1000 -1000 -1000 -1000 -1000 -1000 -1000 -1000 
-1000 -1000 -1000 -1000 -1000 -1000 -1000 -1000 -1000 
-1000 -1000 -1000 -1000 -1000 -1000 -1000 -1000 -1000 
-1000 -1000 -1000 -1000 -1000 -1000 -1000 -1000 -1000 
-1000 -1000 -1000 -1000 -1000 -1000 -1000 -1000 -1000 
-1000 -1000 -1000 -1000 -1000 -1000 -1000 -1000 -1000 
-1000 -1000 -1000 -1000 -1000 -1000 -1000 -1000 -1000 
-1000 -1000 -1000 -1000 -1000 -1000 -1000 -1000 -1000 
-1000 -1000 -1000 -1000 -1000 -1000 -1000 -1000 -1000 
-1000 -1000 -1000 -1000 -1000 -1000 -1000 -1000 -1000 
-1000 -1000 -1000 -1000 -1000 -1000 -1000 -1000 -1000 
-1000 -1000 -1000 -1000 -1000 -1000 -1000 -1000 -1000 
-1000 -1000 -1000 -1000 -1000 -1000 -1000 -1000 -1000 
-1000 -1000 -1000 -1000 -1000 -1000 -1000 -1000 -1000 
-1000 -1000 -1000 -1000 -1000 -1000 -1000 -1000 -1000 
-1000 -1000 -1000 -1000 -1000 -1000 -1000 -1000 -1000 
-1000 -1000 -1000 -1000 -1000 -1000 -1000 -1000 -1000 
-1000 -1000 -1000 -1000 -1000 -1000 -1000 -1000 -1000 
-1000 -1000 -1000 -1000 -1000 -1000 -1000 -1000 -1000 
-1000 -1000 -1000 -1000 -1000 -1000 -1000 -1000 -1000 
-1000 -1000 -1000 -1000 -1000 -1000 -1000 -1000 -1000 
-1000 -1000 -1000 -1000 -1000 -1000 -1000 -1000 -1000 
-1000 -1000 -1000 -1000 -1000 -1000 -1000 -1000 -1000 
-1000 -1000 -1000 -1000 -1000 -1000 -1000 -1000 -1000 
-1000 -1000 -1000 -1000 -1000 -1000 -1000 -1000 -1000 
-1000 -1000 -1000 -1000 -1000 -1000 -1000 -1000 -1000 
-1000 -1000 -1000 -1000 -1000 -1000 -1000 -1000 -1000 
-1000 -1000 -1000 -1000 -1000 -1000 -1000 -1000 -1000 
-1000 -1000 -1000 -1000 -1000 -1000 -1000 -1000 -1000 
-1000 -1000 -1000 -1000 -1000 -1000 -1000 -1000 -1000 
-1000 -1000 -1000 -1000 -1000 -1000 -1000 -1000 -1000 
-1000 -1000 -1000 -1000 -1000 -1000 -1000 -1000 -1000 
-1000 -1000 -1000 -1000 -1000 -1000 -1000 -1000 -1000 
-1000 -1000 -1000 -1000 -1000 -1000 -1000 -1000 -1000 
-1000 -1000 -1000 -1000 -1000 -1000 -1000 -1000 -1000 
-1000 -1000 -1000 -1000 -1000 -1000 -1000 -1000 -1000 
-1000 -1000 -1000 -1000 -1000 -1000 -1000 -1000 -1000 
-1000 -1000 -1000 -1000 -1000 -1000 -1000 -1000 -1000 
-1000 -1000 -1000 -1000 -1000 -1000 -1000 -1000 -1000 
-1000 -1000 -1000 -1000 -1000 -1000 -1000 -1000 -1000 
-1000 -1000 -1000 -1000 -1000 -1000 -1000 -1000 -1000 
-1000 -1000 -1000 -1000 -1000 -1000 -1000 -1000 -1000 
-1000 -1000 -1000 -1000 -1000 -1000 -1000 -1000 -1000 
-1000 -1000 -1000 -1000 -1000 -1000 -1000 -1000 -1000 
-1000 -1000 -1000 -1000 -1000 -1000 -1000 -1000 -1000 
-1000 -1000 -1000 -1000 -1000 -1000 -1000 -1000 -1000 
-1000 -1000 -1000 -1000 -1000 -1000 -1000 -1000 -1000 
-1000 -1000 -1000 -1000 -1000 -1000 -1000 -1000 -1000 
-1000 -1000 -1000 -1000 -1000 -1000 -1000 -1000 -1000 
-1000 -1000 -1000 -1000 -1000 -1000 -1000 -1000 -1000 
-1000 -1000 -1000 -1000 -1000 -1000 -1000 -1000 -1000 
-1000 -1000 -1000 -1000 -1000 -1000 -1000 -1000 -1000 
-1000 -1000 -1000 -1000 -1000 -1000 -1000 -1000 -1000 
-1000 -1000 -1000 -1000 -1000 -1000 -1000 -1000 -1000 
-1000 -1000 -1000 -1000 -1000 -1000 -1000 -1000 -1000 
-1000 -1000 -1000 -1000 -1000 -1000 -1000 -1000 -1000 
-1000 -1000 -1000 -1000 -1000 -1000 -1000 -1000 -1000 
-1000 -1000 -1000 -1000 -1000 -1000 -1000 -1000 -1000 
-1000 -1000 -1000 -1000 -1000 -1000 -1000 -1000 -1000 
-1000 -1000 -1000 -1000 -1000 -1000 -1000 -1000 -1000 
-1000 -1000 -1000 -1000 -1000 -1000 -1000 -1000 -1000 
-1000 -1000 -1000 -1000 -1000 -1000 -1000 -1000 -1000 
-1000 -1000 -1000 -1000 -1000 -1000 -1000 -1000 -1000 
-1000 -1000 -1000 -1000 -1000 -1000 -1000 -1000 -1000 
-1000 -1000 -1000 -1000 -1000 -1000 -1000 -1000 -1000 
-1000 -1000 -1000 -1000 -1000 -1000 -1000 -1000 -1000 
-1000 -1000 -1000 -1000 -1000 -1000 -1000 -1000 -1000 
-1000 -1000 -1000 -1000 -1000 -1000 -1000 -1000 -1000 
-1000 -1000 -1000 -1000 -1000 -1000 -1000 -1000 -1000 
-1000 -1000 -1000 -1000 -1000 -1000 -1000 -1000 -1000 
-1000 -1000 -1000 -1000 -1000 -1000 -1000 -1000 -1000 
-1000 -1000 -1000 -1000 -1000 -1000 -1000 -1000 -1000 
-1000 -1000 -1000 -1000 -1000 -1000 -1000 -1000 -1000 
-1000 -1000 -1000 -1000 -1000 -1000 -1000 -1000 -1000 
-1000 -1000 -1000 -1000 -1000 -1000 -1000 -1000 -1000 
-1000 -1000 -1000 -1000 -1000 -1000 -1000 -1000 -1000 
-1000 -1000 -1000 -1000 -1000 -1000 -1000 -1000 -1000 
-1000 -1000 -1000 -1000 -1000 -1000 -1000 -1000 -1000 
-1000 -1000 -1000 -1000 -1000 -1000 -1000 -1000 -1000 
-1000 -1000 -1000 -1000 -1000 -1000 -1000 -1000 -1000 
-1000 -1000 -1000 -1000 -1000 -1000 -1000 -1000 -1000 
-1000 -1000 -1000 -1000 -1000 -1000 -1000 -1000 -1000 
-1000 -1000 -1000 -1000 -1000 -1000 -1000 -1000 -1000 
-1000 -1000 -1000 -1000 -1000 -1000 -1000 -1000 -1000 
-1000 -1000 -1000 -1000 -1000 -1000 -1000 -1000 -1000 
-1000 -1000 -1000 -1000 -1000 -1000 -1000 -1000 -1000 
-1000 -1000 -1000 -1000 -1000 -1000 -1000 -1000 -1000 
-1000 -1000 -1000 -1000 -1000 -1000 -1000 -1000 -1000 
-1000 -1000 -1000 -1000 -1000 -1000 -1000 -1000 -1000 
-1000 -1000 -1000 -1000 -1000 -1000 -1000 -1000 -1000 
-1000 -1000 -1000 -1000 -1000 -1000 -1000 -1000 -1000 
-1000 -1000 -1000 -1000 -1000 -1000 -1000 -1000 -1000 
-1000 -1000 -1000 -1000 -1000 -1000 -1000 -1000 -1000 
-1000 -1000 -1000 -1000 -1000 -1000 -1000 -1000 -1000 
-1000 -1000 -1000 -1000 -1000 -1000 -1000 -1000 -1000 
-1000 -1000 -1000 -1000 -1000 -1000 -1000 -1000 -1000 
-1000 -1000 -1000 -1000 -1000 -1000 -1000 -1000 -1000 
-1000 -1000 -1000 -1000 -1000 -1000 -1000 -1000 -1000 
-1000 -1000 -1000 -1000 -1000 -1000 -1000 -1000 -1000 
-1000 -1000 -1000 -1000 -1000 -1000 -1000 -1000 -1000 
-1000 -1000 -1000 -1000 -1000 -1000 -1000 -1000 -1000 
-1000 -1000 -1000 -1000 -1000 -1000 -1000 -1000 -1000 
-1000 -1000 -1000 -1000 -1000 -1000 -1000 -1000 -1000 
-1000 -1000 -1000 -1000 -1000 -1000 -1000 -1000 -1000 
-1000 -1000 -1000 -1000 -1000 -1000 -1000 -1000 -1000 
-1000 -1000 -1000 -1000 -1000 -1000 -1000 -1000 -1000 
-1000 -1000 -1000 -1000 -1000 -1000 -1000 -1000 -1000 
-1000 -1000 -1000 -1000 -1000 -1000 -1000 -1000 -1000 
-1000 -1000 -1000 -1000 -1000 -1000 -1000 -1000 -1000 
-1000 -1000 -1000 -1000 -1000 -1000 -1000 -1000 -1000 
-1000 -1000 -1000 -1000 -1000 -1000 -1000 -1000 -1000 
-1000 -1000 -1000 -1000 -1000 -1000 -1000 -1000 -1000 
-1000 -1000 -1000 -1000 -1000 -1000 -1000 -1000 -1000 
-1000 -1000 -1000 -1000 -1000 -1000 -1000 -1000 -1000 
-1000 -1000 -1000 -1000 -1000 -1000 -1000 -1000 -1000 
-1000 -1000 -1000 -1000 -1000 -1000 -1000 -1000 -1000 
-1000 -1000 -1000 -1000 -1000 -1000 -1000 -1000 -1000 
-1000 -1000 -1000 -1000 -1000 -1000 -1000 -1000 -1000 
-1000 -1000 -1000 -1000 -1000 -1000 -1000 -1000 -1000 
-1000 -1000 -1000 -1000 -1000 -1000 -1000 -1000 -1000 
-1000 -1000 -1000 -1000 -1000 -1000 -1000 -1000 -1000 
-1000 -1000 -1000 -1000 -1000 -1000 -1000 -1000 -1000 
-1000 -1000 -1000 -1000 -1000 -1000 -1000 -1000 -1000 
-1000 -1000 -1000 -1000 -1000 -1000 -1000 -1000 -1000 
-1000 -1000 -1000 -1000 -1000 -1000 -1000 -1000 -1000 
-1000 -1000 -1000 -1000 -1000 -1000 -1000 -1000 -1000 
-1000 -1000 -1000 -1000 -1000 -1000 -1000 -1000 -1000 
-1000 -1000 -1000 -1000 -1000 -1000 -1000 -1000 -1000 
-1000 -1000 -1000 -1000 -1000 -1000 -1000 -1000 -1000 
-1000 -1000 -1000 -1000 -1000 -1000 -1000 -1000 -1000 
-1000 -1000 -1000 -1000 -1000 -1000 -1000 -1000 -1000 
-1000 -1000 -1000 -1000 -1000 -1000 -1000 -1000 -1000 
-1000 -1000 -1000 -1000 -1000 -1000 -1000 -1000 -1000 
-1000 -1000 -1000 -1000 -1000 -1000 -1000 -1000 -1000 
-1000 -1000 -1000 -1000 -1000 -1000 -1000 -1000 -1000 
-1000 -1000 -1000 -1000 -1000 -1000 -1000 -1000 -1000 
-1000 -1000 -1000 -1000 -1000 -1000 -1000 -1000 -1000 
-1000 -1000 -1000 -1000 -1000 -1000 -1000 -1000 -1000 
-1000 -1000 -1000 -1000 -1000 -1000 -1000 -1000 -1000 
-1000 -1000 -1000 -1000 -1000 -1000 -1000 -1000 -1000 
-1000 -1000 -1000 -1000 -1000 -1000 -1000 -1000 -1000 
-1000 -1000 -1000 -1000 -1000 -1000 -1000 -1000 -1000 
-1000 -1000 -1000 -1000 -1000 -1000 -1000 -1000 -1000 
-1000 -1000 -1000 -1000 -1000 -1000 -1000 -1000 -1000 
-1000 -1000 -1000 -1000 -1000 -1000 -1000 -1000 -1000 
-1000 -1000 -1000 -1000 -1000 -1000 -1000 -1000 -1000 
-1000 -1000 -1000 -1000 -1000 -1000 -1000 -1000 -1000 
-1000 -1000 -1000 -1000 -1000 -1000 -1000 -1000 -1000 
-1000 -1000 -1000 -1000 -1000 -1000 -1000 -1000 -1000 
-1000 -1000 -1000 -1000 -1000 -1000 -1000 -1000 -1000 
-1000 -1000 -1000 -1000 -1000 -1000 -1000 -1000 -1000 
-1000 -1000 -1000 -1000 -1000 -1000 -1000 -1000 -1000 
-1000 -1000 -1000 -1000 -1000 -1000 -1000 -1000 -1000 
-1000 -1000 -1000 -1000 -1000 -1000 -1000 -1000 -1000 
-1000 -1000 -1000 -1000 -1000 -1000 -1000 -1000 -1000 
-1000 -1000 -1000 -1000 -1000 -1000 -1000 -1000 -1000 
-1000 -1000 -1000 -1000 -1000 -1000 -1000 -1000 -1000 
-1000 -1000 -1000 -1000 -1000 -1000 -1000 -1000 -1000 
-1000 -1000 -1000 -1000 -1000 -1000 -1000 -1000 -1000 
-1000 -1000 -1000 -1000 -1000 -1000 -1000 -1000 -1000 
-1000 -1000 -1000 -1000 -1000 -1000 -1000 -1000 -1000 
-1000 -1000 -1000 -1000 -1000 -1000 -1000 -1000 -1000 
-1000 -1000 -1000 -1000 -1000 -1000 -1000 -1000 -1000 
-1000 -1000 -1000 -1000 -1000 -1000 -1000 -1000 -1000 
-1000 -1000 -1000 -1000 -1000 -1000 -1000 -1000 -1000 
-1000 -1000 -1000 -1000 -1000 -1000 -1000 -1000 -1000 
-1000 -1000 -1000 -1000 -1000 -1000 -1000 -1000 -1000 
-1000 -1000 -1000 -1000 -1000 -1000 -1000 -1000 -1000 
-1000 -1000 -1000 -1000 -1000 -1000 -1000 -1000 -1000 
-1000 -1000 -1000 -1000 -1000 -1000 -1000 -1000 -1000 
-1000 -1000 -1000 -1000 -1000 -1000 -1000 -1000 -1000 
-1000 -1000 -1000 -1000 -1000 -1000 -1000 -1000 -1000 
-1000 -1000 -1000 -1000 -1000 -1000 -1000 -1000 -1000 
-1000 -1000 -1000 -1000 -1000 -1000 -1000 -1000 -1000 
-1000 -1000 -1000 -1000 -1000 -1000 -1000 -1000 -1000 
-1000 -1000 -1000 -1000 -1000 -1000 -1000 -1000 -1000 
-1000 -1000 -1000 -1000 -1000 -1000 -1000 -1000 -1000 
-1000 -1000 -1000 -1000 -1000 -1000 -1000 -1000 -1000 
-1000 -1000 -1000 -1000 -1000 -1000 -1000 -1000 -1000 
-1000 -1000 -1000 -1000 -1000 -1000 -1000 -1000 -1000 
-1000 -1000 -1000 -1000 -1000 -1000 -1000 -1000 -1000 
-1000 -1000 -1000 -1000 -1000 -1000 -1000 -1000 -1000 
-1000 -1000 -1000 -1000 -1000 -1000 -1000 -1000 -1000 
-1000 -1000 -1000 -1000 -1000 -1000 -1000 -1000 -1000 
-1000 -1000 -1000 -1000 -1000 -1000 -1000 -1000 -1000 
-1000 -1000 -1000 -1000 -1000 -1000 -1000 -1000 -1000 
-1000 -1000 -1000 -1000 -1000 -1000 -1000 -1000 -1000 
-1000 -1000 -1000 -1000 -1000 -1000 -1000 -1000 -1000 
-1000 -1000 -1000 -1000 -1000 -1000 -1000 -1000 -1000 
-1000 -1000 -1000 -1000 -1000 -1000 -1000 -1000 -1000 
-1000 -1000 -1000 -1000 -1000 -1000 -1000 -1000 -1000 
-1000 -1000 -1000 -1000 -1000 -1000 -1000 -1000 -1000 
-1000 -1000 -1000 -1000 -1000 -1000 -1000 -1000 -1000 
-1000 -1000 -1000 -1000 -1000 -1000 -1000 -1000 -1000 
-1000 -1000 -1000 -1000 -1000 -1000 -1000 -1000 -1000 
-1000 -1000 -1000 -1000 -1000 -1000 -1000 -1000 -1000 
-1000 -1000 -1000 -1000 -1000 -1000 -1000 -1000 -1000 
-1000 -1000 -1000 -1000 -1000 -1000 -1000 -1000 -1000 
-1000 -1000 -1000 -1000 -1000 -1000 -1000 -1000 -1000 
-1000 -1000 -1000 -1000 -1000 -1000 -1000 -1000 -1000 
-1000 -1000 -1000 -1000 -1000 -1000 -1000 -1000 -1000 
-1000 -1000 -1000 -1000 -1000 -1000 -1000 -1000 -1000 
-1000 -1000 -1000 -1000 -1000 -1000 -1000 -1000 -1000 
-1000 -1000 -1000 -1000 -1000 -1000 -1000 -1000 -1000 
-1000 -1000 -1000 -1000 -1000 -1000 -1000 -1000 -1000 
-1000 -1000 -1000 -1000 -1000 -1000 -1000 -1000 -1000 
-1000 -1000 -1000 -1000 -1000 -1000 -1000 -1000 -1000 
-1000 -1000 -1000 -1000 -1000 -1000 -1000 -1000 -1000 
-1000 -1000 -1000 -1000 -1000 -1000 -1000 -1000 -1000 
-1000 -1000 -1000 -1000 -1000 -1000 -1000 -1000 -1000 
-1000 -1000 -1000 -1000 -1000 -1000 -1000 -1000 -1000 
-1000 -1000 -1000 -1000 -1000 -1000 -1000 -1000 -1000 
-1000 -1000 -1000 -1000 -1000 -1000 -1000 -1000 -1000 
-1000 -1000 -1000 -1000 -1000 -1000 -1000 -1000 -1000 
-1000 -1000 -1000 -1000 -1000 -1000 -1000 -1000 -1000 
-1000 -1000 -1000 -1000 -1000 -1000 -1000 -1000 -1000 
-1000 -1000 -1000 -1000 -1000 -1000 -1000 -1000 -1000 
-1000 -1000 -1000 -1000 -1000 -1000 -1000 -1000 -1000 
-1000 -1000 -1000 -1000 -1000 -1000 -1000 -1000 -1000 
-1000 -1000 -1000 -1000 -1000 -1000 -1000 -1000 -1000 
-1000 -1000 -1000 -1000 -1000 -1000 -1000 -1000 -1000 
-1000 -1000 -1000 -1000 -1000 -1000 -1000 -1000 -1000 
-1000 -1000 -1000 -1000 -1000 -1000 -1000 -1000 -1000 
-1000 -1000 -1000 -1000 -1000 -1000 -1000 -1000 -1000 
-1000 -1000 -1000 -1000 -1000 -1000 -1000 -1000 -1000 
-1000 -1000 -1000 -1000 -1000 -1000 -1000 -1000 -1000 
-1000 -1000 -1000 -1000 -1000 -1000 -1000 -1000 -1000 
-1000 -1000 -1000 -1000 -1000 -1000 -1000 -1000 -1000 
-1000 -1000 -1000 -1000 -1000 -1000 -1000 -1000 -1000 
-1000 -1000 -1000 -1000 -1000 -1000 -1000 -1000 -1000 
-1000 -1000 -1000 -1000 -1000 -1000 -1000 -1000 -1000 
-1000 -1000 -1000 -1000 -1000 -1000 -1000 -1000 -1000 
-1000 -1000 -1000 -1000 -1000 -1000 -1000 -1000 -1000 
-1000 -1000 -1000 -1000 -1000 -1000 -1000 -1000 -1000 
-1000 -1000 -1000 -1000 -1000 -1000 -1000 -1000 -1000 
-1000 -1000 -1000 -1000 -1000 -1000 -1000 -1000 -1000 
-1000 -1000 -1000 -1000 -1000 -1000 -1000 -1000 -1000 
-1000 -1000 -1000 -1000 -1000 -1000 -1000 -1000 -1000 
-1000 -1000 -1000 -1000 -1000 -1000 -1000 -1000 -1000 
-1000 -1000 -1000 -1000 -1000 -1000 -1000 -1000 -1000 
-1000 -1000 -1000 -1000 -1000 -1000 -1000 -1000 -1000 
-1000 -1000 -1000 -1000 -1000 -1000 -1000 -1000 -1000 
-1000 -1000 -1000 -1000 -1000 -1000 -1000 -1000 -1000 
-1000 -1000 -1000 -1000 -1000 -1000 -1000 -1000 -1000 
-1000 -1000 -1000 -1000 -1000 -1000 -1000 -1000 -1000 
-1000 -1000 -1000 -1000 -1000 -1000 -1000 -1000 -1000 
-1000 -1000 -1000 -1000 -1000 -1000 -1000 -1000 -1000 
-1000 -1000 -1000 -1000 -1000 -1000 -1000 -1000 -1000 
-1000 -1000 -1000 -1000 -1000 -1000 -1000 -1000 -1000 
-1000 -1000 -1000 -1000 -1000 -1000 -1000 -1000 -1000 
-1000 -1000 -1000 -1000 -1000 -1000 -1000 -1000 -1000 
-1000 -1000 -1000 -1000 -1000 -1000 -1000 -1000 -1000 
-1000 -1000 -1000 -1000 -1000 -1000 -1000 -1000 -1000 
-1000 -1000 -1000 -1000 -1000 -1000 -1000 -1000 -1000 
-1000 -1000 -1000 -1000 -1000 -1000 -1000 -1000 -1000 
-1000 -1000 -1000 -1000 -1000 -1000 -1000 -1000 -1000 
-1000 -1000 -1000 -1000 -1000 -1000 -1000 -1000 -1000 
-1000 -1000 -1000 -1000 -1000 -1000 -1000 -1000 -1000 
-1000 -1000 -1000 -1000 -1000 -1000 -1000 -1000 -1000 
-1000 -1000 -1000 -1000 -1000 -1000 -1000 -1000 -1000 
-1000 -1000 -1000 -1000 -1000 -1000 -1000 -1000 -1000 
-1000 -1000 -1000 -1000 -1000 -1000 -1000 -1000 -1000 
-1000 -1000 -1000 -1000 -1000 -1000 -1000 -1000 -1000 
-1000 -1000 -1000 -1000 -1000 -1000 -1000 -1000 -1000 
-1000 -1000 -1000 -1000 -1000 -1000 -1000 -1000 -1000 
-1000 -1000 -1000 -1000 -1000 -1000 -1000 -1000 -1000 
-1000 -1000 -1000 -1000 -1000 -1000 -1000 -1000 -1000 
-1000 -1000 -1000 -1000 -1000 -1000 -1000 -1000 -1000 
-1000 -1000 -1000 -1000 -1000 -1000 -1000 -1000 -1000 
-1000 -1000 -1000 -1000 -1000 -1000 -1000 -1000 -1000 
-1000 -1000 -1000 -1000 -1000 -1000 -1000 -1000 -1000 
-1000 -1000 -1000 -1000 -1000 -1000 -1000 -1000 -1000 
-1000 -1000 -1000 -1000 -1000 -1000 -1000 -1000 -1000 
-1000 -1000 -1000 -1000 -1000 -1000 -1000 -1000 -1000 
-1000 -1000 -1000 -1000 -1000 -1000 -1000 -1000 -1000 
-1000 -1000 -1000 -1000 -1000 -1000 -1000 -1000 -1000 
-1000 -1000 -1000 -1000 -1000 -1000 -1000 -1000 -1000 
-1000 -1000 -1000 -1000 -1000 -1000 -1000 -1000 -1000 
-1000 -1000 -1000 -1000 -1000 -1000 -1000 -1000 -1000 
-1000 -1000 -1000 -1000 -1000 -1000 -1000 -1000 -1000 
-1000 -1000 -1000 -1000 -1000 -1000 -1000 -1000 -1000 
-1000 -1000 -1000 -1000 -1000 -1000 -1000 -1000 -1000 
-1000 -1000 -1000 -1000 -1000 -1000 -1000 -1000 -1000 
-1000 -1000 -1000 -1000 -1000 -1000 -1000 -1000 -1000 
-1000 -1000 -1000 -1000 -1000 -1000 -1000 -1000 -1000 
-1000 -1000 -1000 -1000 -1000 -1000 -1000 -1000 -1000 
-1000 -1000 -1000 -1000 -1000 -1000 -1000 -1000 -1000 
-1000 -1000 -1000 -1000 -1000 -1000 -1000 -1000 -1000 
-1000 -1000 -1000 -1000 -1000 -1000 -1000 -1000 -1000 
-1000 -1000 -1000 -1000 -1000 -1000 -1000 -1000 -1000 
-1000 -1000 -1000 -1000 -1000 -1000 -1000 -1000 -1000 
-1000 -1000 -1000 -1000 -1000 -1000 -1000 -1000 -1000 
-1000 -1000 -1000 -1000 -1000 -1000 -1000 -1000 -1000 
-1000 -1000 -1000 -1000 -1000 -1000 -1000 -1000 -1000 
-1000 -1000 -1000 -1000 -1000 -1000 -1000 -1000 -1000 
-1000 -1000 -1000 -1000 -1000 -1000 -1000 -1000 -1000 
-1000 -1000 -1000 -1000 -1000 -1000 -1000 -1000 -1000 
-1000 -1000 -1000 -1000 -1000 -1000 -1000 -1000 -1000 
-1000 -1000 -1000 -1000 -1000 -1000 -1000 -1000 -1000 
-1000 -1000 -1000 -1000 -1000 -1000 -1000 -1000 -1000 
-1000 -1000 -1000 -1000 -1000 -1000 -1000 -1000 -1000 
-1000 -1000 -1000 -1000 -1000 -1000 -1000 -1000 -1000 
-1000 -1000 -1000 -1000 -1000 -1000 -1000 -1000 -1000 
-1000 -1000 -1000 -1000 -1000 -1000 -1000 -1000 -1000 
-1000 -1000 -1000 -1000 -1000 -1000 -1000 -1000 -1000 
-1000 -1000 -1000 -1000 -1000 -1000 -1000 -1000 -1000 
-1000 -1000 -1000 -1000 -1000 -1000 -1000 -1000 -1000 