# vtk DataFile Version 3.0
vtk output
ASCII
DATASET POLYDATA
POINTS 17746 float
-77.7517 -13.1889 -0.976233 -76.7978 -13.7083 -0.499657 -76.6189 -13.1318 -0.693401 
-78.7861 -13.5641 -0.991135 -77.6655 -14.0053 -0.56226 -78.5954 -14.1303 -0.643526 
-76.1963 -11.7468 -1.05265 -75.2267 -12.0968 -0.641245 -75.268 -11.2642 -0.890439 
-77.2175 -12.3274 -1.16465 -75.9039 -12.6528 -0.661506 -78.4245 -12.4087 -1.45115 
-79.2081 -12.7767 -1.42714 -79.465 -13.8226 -0.897339 -80.2156 -13.1283 -1.29447 
-81.2813 -13.1265 -1.19798 -80.4253 -13.7453 -0.919189 -81.4616 -13.5237 -0.925833 
-76.496 -10.6334 -1.45274 -75.3884 -10.4252 -1.15206 -77.5494 -11.2355 -1.57365 
-78.6184 -11.6154 -1.71589 -79.6263 -11.9083 -1.79836 -80.6224 -12.164 -1.72298 
-81.6038 -12.3833 -1.49779 -82.4069 -12.6971 -1.11598 -76.1449 -9.50714 -1.66761 
-74.9583 -9.89 -1.14664 -75.0759 -9.22324 -1.39564 -77.3654 -9.7379 -1.91971 
-78.0985 -10.2212 -1.94289 -79.0619 -10.6526 -2.01858 -80.0782 -10.9771 -2.05909 
-80.8672 -11.3176 -1.99255 -82.0462 -11.2825 -1.76811 -82.6671 -11.7845 -1.39855 
-75.8241 -8.41367 -1.9037 -74.7279 -8.66878 -1.42262 -75.0085 -7.7997 -1.7499 
-76.939 -8.52747 -2.18567 -77.7006 -8.90438 -2.20832 -78.6964 -9.24418 -2.26627 
-79.6752 -9.65422 -2.28618 -80.4325 -10.11 -2.25339 -81.7723 -10.1854 -2.12102 
-83.1121 -10.2311 -1.67946 -83.2958 -10.9518 -1.36171 -76.2295 -7.2889 -2.32186 
-75.4296 -6.76956 -2.10229 -77.1898 -7.677 -2.47623 -78.1578 -7.98701 -2.53713 
-79.1732 -8.26053 -2.53153 -80.2839 -8.5782 -2.50173 -81.4195 -9.08298 -2.39253 
-82.71 -9.08887 -2.21241 -83.2002 -9.48724 -1.92963 -76.7076 -6.26289 -2.64842 
-75.9875 -5.7573 -2.40208 -77.6386 -6.67616 -2.79759 -78.6474 -7.04206 -2.81121 
-79.4282 -7.42096 -2.73949 -80.7521 -7.38534 -2.66369 -81.8482 -7.87152 -2.51436 
-82.9615 -8.19549 -2.32853 -77.2119 -5.31586 -2.84985 -76.6898 -4.82426 -2.61139 
-78.0893 -5.68239 -3.01152 -79.1481 -6.03019 -3.0191 -80.3176 -6.4422 -2.85924 
-81.6433 -6.3977 -2.66636 -82.3805 -6.83559 -2.5255 -83.1334 -7.29953 -2.40728 
-77.6641 -4.59688 -2.89164 -77.5808 -4.13442 -2.73125 -78.4602 -4.78206 -3.03552 
-79.5154 -5.04777 -3.07449 -80.6159 -5.35748 -2.96226 -81.7694 -5.58199 -2.73753 
-78.663 -4.02443 -2.89086 -79.829 -4.16765 -2.95796 -80.9686 -4.4414 -2.91141 
-81.8449 -4.79146 -2.78809 -76.174 -16.0476 0.514375 -75.336 -16.5858 0.816974 
-75.1227 -15.9692 0.652667 -77.2645 -16.5117 0.542069 -76.1261 -16.9811 0.847914 
-78.33 -16.8192 0.580365 -77.1422 -17.3464 0.890518 -79.3425 -17.0148 0.654207 
-78.2252 -17.5527 0.931453 -79.204 -17.5497 0.941997 -74.3753 -14.4552 0.300229 
-73.6091 -14.8922 0.561654 -73.4452 -14.1856 0.380107 -75.4685 -15.1566 0.324033 
-74.3588 -15.4647 0.613663 -76.6487 -15.2299 0.149427 -77.5325 -15.6284 0.179594 
-78.6081 -15.9714 0.205325 -79.7121 -16.2527 0.252524 -80.0315 -17.1773 0.765816 
-80.7614 -16.5569 0.392792 -80.8363 -17.0537 0.701263 -73.7546 -13.3147 0.0602127 
-72.9058 -13.6555 0.293348 -72.7997 -12.9539 0.0982552 -74.7709 -13.7087 -0.0138867 
-75.3376 -14.2849 0.0577868 -76.4643 -14.416 -0.124147 -77.85 -14.7209 -0.227287 
-78.9855 -15.0767 -0.170457 -80.1573 -15.335 -0.142622 -81.3104 -15.6307 -0.0796991 
-81.6965 -16.6787 0.46777 -82.4716 -15.9595 0.07628 -83.627 -15.9547 0.204721 
-82.7411 -16.5806 0.466544 -83.9478 -16.3473 0.628024 -73.1698 -12.1167 -0.165117 
-72.2783 -12.4119 0.031165 -72.2221 -11.7257 -0.0925065 -73.9666 -12.5293 -0.202814 
-74.7737 -12.831 -0.290422 -75.7662 -13.5609 -0.28768 -79.3201 -14.3319 -0.559869 
-80.6469 -14.3374 -0.560098 -81.8192 -14.6113 -0.448033 -82.952 -14.9132 -0.329834 
-83.9873 -15.1948 -0.0738833 -84.6628 -15.5251 0.370547 -72.6816 -10.9687 -0.276079 
-71.7715 -11.1556 -0.0763017 -71.8749 -10.2997 -0.170774 -73.5772 -11.2013 -0.430197 
-74.2997 -11.8254 -0.460675 -82.2572 -13.6152 -0.761798 -83.4697 -13.7244 -0.584111 
-84.4193 -14.1762 -0.313945 -85.3971 -14.4267 0.23384 -72.8555 -9.89287 -0.466217 
-72.0959 -9.30925 -0.331988 -73.4888 -10.4423 -0.552818 -74.3962 -10.662 -0.760921 
-83.4349 -12.7502 -0.806179 -84.2615 -12.7629 -0.606418 -84.8497 -13.1327 -0.398688 
-85.526 -13.4796 -0.0658944 -73.0559 -8.87816 -0.70239 -72.3407 -8.49389 -0.533666 
-74.0399 -9.50325 -0.928932 -83.6377 -11.6998 -0.994822 -84.2958 -12.0749 -0.687658 
-73.0822 -7.78292 -0.948665 -72.0774 -7.9008 -0.614902 -72.3946 -7.04793 -0.903463 
-73.9935 -8.31604 -1.19909 -83.9619 -10.2334 -1.25068 -84.1615 -10.7568 -0.994411 
-73.565 -6.63481 -1.33615 -72.8914 -5.99914 -1.20987 -74.2659 -7.2488 -1.52821 
-84.0871 -8.59686 -1.95912 -84.2767 -9.47696 -1.46306 -74.1521 -5.57074 -1.64807 
-73.5047 -4.95258 -1.48154 -74.7699 -6.18796 -1.86268 -84.485 -7.36162 -2.22716 
-85.2304 -8.76022 -1.50402 -85.8265 -7.89277 -1.83631 -87.0793 -7.8499 -1.60107 
-86.6212 -8.59575 -1.1182 -87.6637 -8.01847 -1.24676 -74.8974 -4.51087 -1.92154 
-74.196 -3.90774 -1.73514 -75.4699 -5.14627 -2.15107 -82.8849 -5.85401 -2.52931 
-83.9938 -6.35242 -2.39423 -85.3376 -6.38239 -2.32787 -86.1732 -6.80577 -2.18642 
-87.2043 -7.13163 -1.92726 -88.0336 -7.3901 -1.54662 -75.6988 -3.43964 -2.15457 
-74.9149 -2.86814 -1.97416 -76.5767 -4.02828 -2.41266 -83.1804 -4.78801 -2.58907 
-84.3579 -5.22767 -2.46092 -85.5155 -5.53047 -2.41887 -86.6392 -5.8045 -2.35887 
-87.6086 -6.169 -2.16922 -88.4332 -6.53361 -1.82273 -76.4228 -2.40176 -2.35106 
-75.6408 -1.87338 -2.1846 -77.4092 -2.87253 -2.53082 -78.5707 -3.28958 -2.70979 
-80.1162 -3.35262 -2.81417 -81.3823 -3.5696 -2.80401 -82.6391 -3.93008 -2.70518 
-83.9909 -3.90103 -2.58798 -84.8006 -4.24511 -2.53065 -85.8644 -4.54574 -2.51221 
-87.0016 -4.80633 -2.50412 -88.2374 -5.07672 -2.37513 -88.8756 -5.62451 -2.05877 
-77.0134 -1.46854 -2.5004 -76.3134 -1.13012 -2.33605 -78.064 -1.83447 -2.68667 
-79.2516 -2.21094 -2.77615 -80.5251 -2.48265 -2.79759 -81.7924 -2.69746 -2.77937 
-82.9843 -2.9417 -2.72737 -84.149 -3.14694 -2.65803 -85.2186 -3.34376 -2.60981 
-86.235 -3.58452 -2.6093 -87.3126 -3.81555 -2.63891 -88.4467 -4.03354 -2.60965 
-89.3677 -4.91401 -2.21638 -89.6128 -4.19513 -2.41008 -90.0582 -4.56429 -2.1263 
-77.2644 -0.781175 -2.55088 -77.9119 -0.109229 -2.73758 -78.5302 -0.783831 -2.83564 
-79.8189 -1.21595 -2.94562 -81.0548 -1.54743 -2.92377 -82.2545 -1.81123 -2.8633 
-83.397 -2.04456 -2.80277 -84.4913 -2.2606 -2.74846 -85.5487 -2.45858 -2.71192 
-86.58 -2.65391 -2.71395 -87.6193 -2.85346 -2.75495 -88.6852 -3.05729 -2.77183 
-89.741 -3.26248 -2.63417 -90.507 -4.09201 -2.11061 -90.65 -3.4578 -2.25061 
-91.1932 -3.76796 -1.63117 -79.3269 0.213191 -3.08117 -78.5609 0.721758 -2.95918 
-80.3532 -0.244869 -3.15376 -81.5458 -0.613343 -3.11696 -82.7132 -0.908579 -3.02186 
-83.8181 -1.15454 -2.93366 -84.8693 -1.36884 -2.87098 -85.8892 -1.56085 -2.83659 
-86.8974 -1.7383 -2.8394 -87.9126 -1.91327 -2.8789 -88.9417 -2.09944 -2.90409 
-89.9585 -2.31419 -2.78461 -90.8725 -2.58033 -2.37657 -91.5339 -2.94014 -1.67606 
-79.818 1.05722 -3.24833 -79.1346 1.37213 -3.12703 -80.8308 0.702444 -3.35243 
-81.9796 0.317704 -3.32257 -83.1235 -0.00196586 -3.2123 -84.2056 -0.261934 -3.10153 
-85.2284 -0.4784 -3.02629 -86.2171 -0.664222 -2.99132 -87.1967 -0.830135 -2.99666 
-88.1853 -0.986948 -3.03584 -89.1903 -1.1516 -3.05962 -90.1914 -1.35292 -2.93783 
-91.1111 -1.6311 -2.50191 -91.828 -2.03372 -1.69989 -79.9707 1.69486 -3.31452 
-80.4231 2.39099 -3.4926 -81.1236 1.72453 -3.51614 -82.3488 1.26864 -3.51674 
-83.482 0.91537 -3.41341 -84.5474 0.638684 -3.29585 -85.5515 0.416071 -3.21458 
-86.5167 0.2333 -3.18053 -87.4708 0.0773499 -3.19009 -88.4309 -0.0677854 -3.23149 
-89.4089 -0.211831 -3.25838 -90.4022 -0.381736 -3.14435 -91.3421 -0.641636 -2.69819 
-92.0982 -1.05171 -1.82287 -81.6941 2.89498 -3.81266 -80.6964 3.17248 -3.72031 
-82.7178 2.26818 -3.73412 -83.8017 1.8609 -3.62978 -84.8472 1.56114 -3.51716 
-85.8366 1.32761 -3.43836 -86.7825 1.13898 -3.40557 -87.7113 0.988691 -3.41293 
-88.6486 0.85558 -3.44688 -89.5767 0.705607 -3.4726 -90.5367 0.582747 -3.39142 
-91.5281 0.398906 -2.99482 -92.3656 0.00509589 -2.09627 -81.3547 3.95097 -4.06322 
-80.2984 3.73872 -3.83447 -80.4731 4.58224 -4.12917 -82.3931 3.74822 -4.12034 
-83.1185 3.25588 -3.99993 -84.0976 2.83539 -3.87642 -85.1068 2.51861 -3.76682 
-86.0846 2.27205 -3.69309 -87.0216 2.06787 -3.65741 -87.9081 1.89044 -3.64675 
-88.8142 1.78409 -3.64944 -89.7531 1.648 -3.64424 -90.5075 1.37967 -3.58367 
-91.5475 1.51692 -3.36083 -92.6292 1.1921 -2.57401 -81.5381 5.03996 -4.38977 
-80.7701 5.57287 -4.41896 -82.4526 4.60209 -4.35683 -83.3976 4.20563 -4.27303 
-84.3382 3.82249 -4.14218 -85.3155 3.51148 -4.02276 -86.2859 3.25681 -3.94369 
-87.2274 3.03713 -3.90113 -88.1263 2.82274 -3.85832 -88.8318 2.56356 -3.80326 
-89.8599 2.72948 -3.75472 -90.9182 2.34385 -3.63555 -91.9013 2.46189 -3.47293 
-92.4683 2.11301 -3.16081 -81.725 5.97478 -4.60515 -81.1379 6.32535 -4.59657 
-82.5835 5.60075 -4.58748 -83.5461 5.18456 -4.50528 -84.4897 4.7957 -4.37873 
-85.4375 4.5127 -4.23411 -86.4137 4.28075 -4.11696 -87.3658 4.03666 -4.05687 
-88.2979 3.81439 -4.00104 -89.2825 3.54303 -3.8799 -90.2664 3.70871 -3.74562 
-90.9632 3.39391 -3.66571 -91.7063 3.09475 -3.56622 -81.7892 6.66838 -4.6949 
-82.2355 7.31798 -4.72164 -82.6662 6.63067 -4.71037 -83.6635 6.19191 -4.63512 
-84.6344 5.76922 -4.50031 -85.3969 5.35315 -4.36271 -86.4283 5.39175 -4.15784 
-87.4319 5.03535 -4.04555 -88.3515 4.79368 -4.00272 -89.2404 4.57995 -3.92568 
-90.1329 4.4796 -3.79587 -83.0313 7.424 -4.69614 -82.8472 7.94117 -4.67303 
-83.7618 7.13819 -4.62666 -84.7412 6.75649 -4.48046 -85.7842 6.27502 -4.26691 
-86.7735 6.30639 -4.00037 -87.5003 5.99375 -3.91009 -88.3819 5.7222 -3.88031 
-89.2619 5.50034 -3.87726 -89.9766 5.24247 -3.8342 -83.7353 7.96273 -4.57828 
-84.7404 7.70297 -4.41834 -85.7451 7.31652 -4.22001 -86.541 6.94143 -4.02426 
-76.6951 -20.6248 1.75638 -76.0048 -21.1455 2.12883 -75.6907 -20.5834 1.92717 
[...]
POINT_DATA 17746
SCALARS scalars float
LOOKUP_TABLE default
-1000 -1000 -1000 -1000 -1000 -1000 -1000 -1000 -1000 
-1000 -1000 -1000 -1000 -1000 -1000 -1000 -1000 -1000 
-1000 -1000 -1000 -1000 -1000 -1000 -1000 -1000 -1000 
-1000 -1000 -1000 -1000 -1000 -1000 -1000 -1000 -1000 
-1000 -1000 -1000 -1000 -1000 -1000 -1000 -1000 -1000 
-1000 -1000 -1000 -1000 -1000 -1000 -1000 -1000 -1000 
-1000 -1000 -1000 -1000 -1000 -1000 -1000 -1000 -1000 
-1000 -1000 -1000 -1000 -1000 -1000 -1000 -1000 -1000 
-1000 -1000 -1000 -1000 -1000 -1000 -1000 -1000 -1000 
-1000 -1000 -1000 -1000 -1000 -1000 -1000 -1000 -1000 
-1000 -1000 -1000 -1000 -1000 -1000 -1000 -1000 -1000 
-1000 -1000 -1000 -1000 -1000 -1000 -1000 -1000 -1000 
-1000 -1000 -1000 -1000 -1000 -1000 -1000 -1000 -1000 
-1000 -1000 -1000 -1000 -1000 -1000 -1000 -1000 -1000 
-1000 -1000 -1000 -1000 -1000 -1000 -1000 -1000 -1000 
-1000 -1000 -1000 -1000 -1000 -1000 -1000 -1000 -1000 
-1000 -1000 -1000 -1000 -1000 -1000 -1000 -1000 -1000 
-1000 -1000 -1000 -1000 -1000 -1000 -1000 -1000 -1000 
-1000 -1000 -1000 -1000 -1000 -1000 -1000 -1000 -1000 
-1000 -1000 -1000 -1000 -1000 -1000 -1000 -1000 -1000 
-1000 -1000 -1000 -1000 -1000 -1000 -1000 -1000 -1000 
-1000 -1000 -1000 -1000 -1000 -1000 -1000 -1000 -1000 
-1000 -1000 -1000 -1000 -1000 -1000 -1000 -1000 -1000 
-1000 -1000 -1000 -1000 -1000 -1000 -1000 -1000 -1000 
-1000 -1000 -1000 -1000 -1000 -1000 -1000 -1000 -1000 
-1000 -1000 -1000 -1000 -1000 -1000 -1000 -1000 -1000 
-1000 -1000 -1000 -1000 -1000 -1000 -1000 -1000 -1000 
-1000 -1000 -1000 -1000 -1000 -1000 -1000 -1000 -1000 
-1000 -1000 -1000 -1000 -1000 -1000 -1000 -1000 -1000 
-1000 -1000 -1000 -1000 -1000 -1000 -1000 -1000 -1000 
-1000 -1000 -1000 -1000 -1000 -1000 -1000 -1000 -1000 
-1000 -1000 -1000 -1000 -1000 -1000 -1000 -1000 -1000 
-1000 -1000 -1000 -1000 -1000 -1000 -1000 -1000 -1000 
-1000 -1000 -1000 -1000 -1000 -1000 -1000 -1000 -1000 
-1000 -1000 -1000 -1000 -1000 -1000 -1000 -1000 -1000 
-1000 -1000 -1000 -1000 -1000 -1000 -1000 -1000 -1000 
-1000 -1000 -1000 -1000 -1000 -1000 -1000 -1000 -1000 
-1000 -1000 -1000 -1000 -1000 -1000 -1000 -1000 -1000 
-1000 -1000 -1000 -1000 -1000 -1000 -1000 -1000 -1000 
-1000 -1000 -1000 -1000 -1000 -1000 -1000 -1000 -1000 
-1000 -1000 -1000 -1000 -1000 -1000 -1000 -1000 -1000 
-1000 -1000 -1000 -1000 -1000 -1000 -1000 -1000 -1000 
-1000 -1000 -1000 -1000 -1000 -1000 -1000 -1000 -1000 
-1000 -1000 -1000 -1000 -1000 -1000 -1000 -1000 -1000 
-1000 -1000 -1000 -1000 -1000 -1000 -1000 -1000 -1000 
-1000 -1000 -1000 -1000 -1000 -1000 -1000 -1000 -1000 
-1000 -1000 -1000 -1000 -1000 -1000 -1000 -1000 -1000 
-1000 -1000 -1000 -1000 -1000 -1000 -1000 -1000 -1000 
-1000 -1000 -1000 -1000 -1000 -1000 -1000 -1000 -1000 
-1000 -1000 -1000 -1000 -1000 -1000 -1000 -1000 -1000 
-1000 -1000 -1000 -1000 -1000 -1000 -1000 -1000 -1000 
-1000 -1000 -1000 -1000 -1000 -1000 -1000 -1000 -1000 
-1000 -1000 -1000 -1000 -1000 -1000 -1000 -1000 -1000 
-1000 -1000 -1000 -1000 -1000 -1000 -1000 -1000 -1000 
-1000 -1000 -1000 -1000 -1000 -1000 -1000 -1000 -1000 
-1000 -1000 -1000 -1000 -1000 -1000 -1000 -1000 -1000 
-1000 -1000 -1000 -1000 -1000 -1000 -1000 -1000 -1000 
-1000 -1000 -1000 -1000 -1000 -1000 -1000 -1000 -1000 
-1000 -1000 -1000 -1000 -1000 -1000 -1000 -1000 -1000 
-1000 -1000 -1000 -1000 -1000 -1000 -1000 -1000 -1000 
-1000 -1000 -1000 -1000 -1000 -1000 -1000 -1000 -1000 
-1000 -1000 -1000 -1000 -1000 -1000 -1000 -1000 -1000 
-1000 -1000 -1000 -1000 -1000 -1000 -1000 -1000 -1000 
-1000 -1000 -1000 -1000 -1000 -1000 -1000 -1000 -1000 
-1000 -1000 -1000 -1000 -1000 -1000 -1000 -1000 -1000 
-1000 -1000 -1000 -1000 -1000 -1000 -1000 -1000 -1000 
-1000 -1000 -1000 -1000 -1000 -1000 -1000 -1000 -1000 
-1000 -1000 -1000 -1000 -1000 -1000 -1000 -1000 -1000 
-1000 -1000 -1000 -1000 -1000 -1000 -1000 -1000 -1000 
-1000 -1000 -1000 -1000 -1000 -1000 -1000 -1000 -1000 
-1000 -1000 -1000 -1000 -1000 -1000 -1000 -1000 -1000 
-1000 -1000 -1000 -1000 -1000 -1000 -1000 -1000 -1000 
-1000 -1000 -1000 -1000 -1000 -1000 -1000 -1000 -1000 
-1000 -1000 -1000 -1000 -1000 -1000 -1000 -1000 -1000 
-1000 -1000 -1000 -1000 -1000 -1000 -1000 -1000 -1000 
-1000 -1000 -1000 -1000 -1000 -1000 -1000 -1000 -1000 
-1000 -1000 -1000 -1000 -1000 -1000 -1000 -1000 -1000 
-1000 -1000 -1000 -1000 -1000 -1000 -1000 -1000 -1000 
-1000 -1000 -1000 -1000 -1000 -1000 -1000 -1000 -1000 
-1000 -1000 -1000 -1000 -1000 -1000 -1000 -1000 -1000 
-1000 -1000 -1000 -1000 -1000 -1000 -1000 -1000 -1000 
-1000 -1000 -1000 -1000 -1000 -1000 -1000 -1000 -1000 
-1000 -1000 -1000 -1000 -1000 -1000 -1000 -1000 -1000 
-1000 -1000 -1000 -1000 -1000 -1000 -1000 -1000 -1000 
-1000 -1000 -1000 -1000 -1000 -1000 -1000 -1000 -1000 
-1000 -1000 -1000 -1000 -1000 -1000 -1000 -1000 -1000 
-1000 -1000 -1000 -1000 -1000 -1000 -1000 -1000 -1000 
-1000 -1000 -1000 -1000 -1000 -1000 -1000 -1000 -1000 
-1000 -1000 -1000 -1000 -1000 -1000 -1000 -1000 -1000 
-1000 -1000 -1000 -1000 -1000 -1000 -1000 -1000 -1000 
-1000 -1000 -1000 -1000 -1000 -1000 -1000 -1000 -1000 
-1000 -1000 -1000 -1000 -1000 -1000 -1000 -1000 -1000 
-1000 -1000 -1000 -1000 -1000 -1000 -1000 -1000 -1000 
-1000 -1000 -1000 -1000 -1000 -1000 -1000 -1000 -1000 
-1000 -1000 -1000 -1000 -1000 -1000 -1000 -1000 -1000 
-1000 -1000 -1000 -1000 -1000 -1000 -1000 -1000 -1000 
-1000 -1000 -1000 -1000 -1000 -1000 -1000 -1000 -1000 
-1000 -1000 -1000 -1000 -1000 -1000 -1000 -1000 -1000 
-1000 -1000 -1000 -1000 -1000 -1000 -1000 -1000 -1000 
-1000 -1000 -1000 -1000 -1000 -1000 -1000 -1000 -1000 
-1000 -1000 -1000 -1000 -1000 -1000 -1000 -1000 -1000 
-1000 -1000 -1000 -1000 -1000 -1000 -1000 -1000 -1000 
-1000 -1000 -1000 -1000 -1000 -1000 -1000 -1000 -1000 
-1000 -1000 -1000 -1000 -1000 -1000 -1000 -1000 -1000 
-1000 -1000 -1000 -1000 -1000 -1000 -1000 -1000 -1000 
-1000 -1000 -1000 -1000 -1000 -1000 -1000 -1000 -1000 
-1000 -1000 -1000 -1000 -1000 -1000 -1000 -1000 -1000 
-1000 -1000 -1000 -1000 -1000 -1000 -1000 -1000 -1000 
-1000 -1000 -1000 -1000 -1000 -1000 -1000 -1000 -1000 
-1000 -1000 -1000 -1000 -1000 -1000 -1000 -1000 -1000 
-1000 -1000 -1000 -1000 -1000 -1000 -1000 -1000 -1000 
-1000 -1000 -1000 -1000 -1000 -1000 -1000 -1000 -1000 
-1000 -1000 -1000 -1000 -1000 -1000 -1000 -1000 -1000 
-1000 -1000 -1000 -1000 -1000 -1000 -1000 -1000 -1000 
-1000 -1000 -1000 -1000 -1000 -1000 -1000 -1000 -1000 
-1000 -1000 -1000 -1000 -1000 -1000 -1000 -1000 -1000 
-1000 -1000 -1000 -1000 -1000 -1000 -1000 -1000 -1000 
-1000 -1000 -1000 -1000 -1000 -1000 -1000 -1000 -1000 
-1000 -1000 -1000 -1000 -1000 -1000 -1000 -1000 -1000 
-1000 -1000 -1000 -1000 -1000 -1000 -1000 -1000 -1000 
-1000 -1000 -1000 -1000 -1000 -1000 -1000 -1000 -1000 
-1000 -1000 -1000 -1000 -1000 -1000 -1000 -1000 -1000 
-1000 -1000 -1000 -1000 -1000 -1000 -1000 -1000 -1000 
-1000 -1000 -1000 -1000 -1000 -1000 -1000 -1000 -1000 
-1000 -1000 -1000 -1000 -1000 -1000 -1000 -1000 -1000 
-1000 -1000 -1000 -1000 -1000 -1000 -1000 -1000 -1000 
-1000 -1000 -1000 -1000 -1000 -1000 -1000 -1000 -1000 
-1000 -1000 -1000 -1000 -1000 -1000 -1000 -1000 -1000 
-1000 -1000 -1000 -1000 -1000 -1000 -1000 -1000 -1000 
-1000 -1000 -1000 -1000 -1000 -1000 -1000 -1000 -1000 
-1000 -1000 -1000 -1000 -1000 -1000 -1000 -1000 -1000 
-1000 -1000 -1000 -1000 -1000 -1000 -1000 -1000 -1000 
-1000 -1000 -1000 -1000 -1000 -1000 -1000 -1000 -1000 
-1000 -1000 -1000 -1000 -1000 -1000 -1000 -1000 -1000 
-1000 -1000 -1000 -1000 -1000 -1000 -1000 -1000 -1000 
-1000 -1000 -1000 -1000 -1000 -1000 -1000 -1000 -1000 
-1000 -1000 -1000 -1000 -1000 -1000 -1000 -1000 -1000 
-1000 -1000 -1000 -1000 -1000 -1000 -1000 -1000 -1000 
-1000 -1000 -1000 -1000 -1000 -1000 -1000 -1000 -1000 
-1000 -1000 -1000 -1000 -1000 -1000 -1000 -1000 -1000 
-1000 -1000 -1000 -1000 -1000 -1000 -1000 -1000 -1000 
-1000 -1000 -1000 -1000 -1000 -1000 -1000 -1000 -1000 
-1000 -1000 -1000 -1000 -1000 -1000 -1000 -1000 -1000 
-1000 -1000 -1000 -1000 -1000 -1000 -1000 -1000 -1000 
-1000 -1000 -1000 -1000 -1000 -1000 -1000 -1000 -1000 
-1000 -1000 -1000 -1000 -1000 -1000 -1000 -1000 -1000 
-1000 -1000 -1000 -1000 -1000 -1000 -1000 -1000 -1000 
-1000 -1000 -1000 -1000 -1000 -1000 -1000 -1000 -1000 
-1000 -1000 -1000 -1000 -1000 -1000 -1000 -1000 -1000 
-1000 -1000 -1000 -1000 -1000 -1000 -1000 -1000 -1000 
-1000 -1000 -1000 -1000 -1000 -1000 -1000 -1000 -1000 
-1000 -1000 -1000 -1000 -1000 -1000 -1000 -1000 -1000 
-1000 -1000 -1000 -1000 -1000 -1000 -1000 -1000 -1000 
-1000 -1000 -1000 -1000 -1000 -1000 -1000 -1000 -1000 
-1000 -1000 -1000 -1000 -1000 -1000 -1000 -1000 -1000 
-1000 -1000 -1000 -1000 -1000 -1000 -1000 -1000 -1000 
-1000 -1000 -1000 -1000 -1000 -1000 -1000 -1000 -1000 
-1000 -1000 -1000 -1000 -1000 -1000 -1000 -1000 -1000 
-1000 -1000 -1000 -1000 -1000 -1000 -1000 -1000 -1000 
-1000 -1000 -1000 -1000 -1000 -1000 -1000 -1000 -1000 
-1000 -1000 -1000 -1000 -1000 -1000 -1000 -1000 -1000 
-1000 -1000 -1000 -1000 -1000 -1000 -1000 -1000 -1000 
-1000 -1000 -1000 -1000 -1000 -1000 -1000 -1000 -1000 
-1000 -1000 -1000 -1000 -1000 -1000 -1000 -1000 -1000 
-1000 -1000 -1000 -1000 -1000 -1000 -1000 -1000 -1000 
-1000 -1000 -1000 -1000 -1000 -1000 -1000 -1000 -1000 
-1000 -1000 -1000 -1000 -1000 -1000 -1000 -1000 -1000 
-1000 -1000 -1000 -1000 -1000 -1000 -1000 -1000 -1000 
-1000 -1000 -1000 -1000 -1000 -1000 -1000 -1000 -1000 
-1000 -1000 -1000 -1000 -1000 -1000 -1000 -1000 -1000 
-1000 -1000 -1000 -1000 -1000 -1000 -1000 -1000 -1000 
-1000 -1000 -1000 -1000 -1000 -1000 -1000 -1000 -1000 
-1000 -1000 -1000 -1000 -1000 -1000 -1000 -1000 -1000 
-1000 -1000 -1000 -1000 -1000 -1000 -1000 -1000 -1000 
-1000 -1000 -1000 -1000 -1000 -1000 -1000 -1000 -1000 
-1000 -1000 -1000 -1000 -1000 -1000 -1000 -1000 -1000 
-1000 -1000 -1000 -1000 -1000 -1000 -1000 -1000 -1000 
-1000 -1000 -1000 -1000 -1000 -1000 -1000 -1000 -1000 
-1000 -1000 -1000 -1000 -1000 -1000 -1000 -1000 -1000 
-1000 -1000 -1000 -1000 -1000 -1000 -1000 -1000 -1000 
-1000 -1000 -1000 -1000 -1000 -1000 -1000 -1000 -1000 
-1000 -1000 -1000 -1000 -1000 -1000 -1000 -1000 -1000 
-1000 -1000 -1000 -1000 -1000 -1000 -1000 -1000 -1000 
-1000 -1000 -1000 -1000 -1000 -1000 -1000 -1000 -1000 
-1000 -1000 -1000 -1000 -1000 -1000 -1000 -1000 -1000 
-1000 -1000 -1000 -1000 -1000 -1000 -1000 -1000 -1000 
-1000 -1000 -1000 -1000 -1000 -1000 -1000 -1000 -1000 
-1000 -1000 -1000 -1000 -1000 -1000 -1000 -1000 -1000 
-1000 -1000 -1000 -1000 -1000 -1000 -1000 -1000 -1000 
-1000 -1000 -1000 -1000 -1000 -1000 -1000 -1000 -1000 
-1000 -1000 -1000 -1000 -1000 -1000 -1000 -1000 -1000 
-1000 -1000 -1000 -1000 -1000 -1000 -1000 -1000 -1000 
-1000 -1000 -1000 -1000 -1000 -1000 -1000 -1000 -1000 
-1000 -1000 -1000 -1000 -1000 -1000 -1000 -1000 -1000 
-1000 -1000 -1000 -1000 -1000 -1000 -1000 -1000 -1000 
-1000 -1000 -1000 -1000 -1000 -1000 -1000 -1000 -1000 
-1000 -1000 -1000 -1000 -1000 -1000 -1000 -1000 -1000 
-1000 -1000 -1000 -1000 -1000 -1000 -1000 -1000 -1000 
-1000 -1000 -1000 -1000 -1000 -1000 -1000 -1000 -1000 
-1000 -1000 -1000 -1000 -1000 -1000 -1000 -1000 -1000 
-1000 -1000 -1000 -1000 -1000 -1000 -1000 -1000 -1000 
-1000 -1000 -1000 -1000 -1000 -1000 -1000 -1000 -1000 
-1000 -1000 -1000 -1000 -1000 -1000 -1000 -1000 -1000 
-1000 -1000 -1000 -1000 -1000 -1000 -1000 -1000 -1000 
-1000 -1000 -1000 -1000 -1000 -1000 -1000 -1000 -1000 
-1000 -1000 -1000 -1000 -1000 -1000 -1000 -1000 -1000 
-1000 -1000 -1000 -1000 -1000 -1000 -1000 -1000 -1000 
-1000 -1000 -1000 -1000 -1000 -1000 -1000 -1000 -1000 
-1000 -1000 -1000 -1000 -1000 -1000 -1000 -1000 -1000 
-1000 -1000 -1000 -1000 -1000 -1000 -1000 -1000 -1000 
-1000 -1000 -1000 -1000 -1000 -1000 -1000 -1000 -1000 
-1000 -1000 -1000 -1000 -1000 -1000 -1000 -1000 -1000 
-1000 -1000 -1000 -1000 -1000 -1000 -1000 -1000 -1000 
-1000 -1000 -1000 -1000 -1000 -1000 -1000 -1000 -1000 
-1000 -1000 -1000 -1000 -1000 -1000 -1000 -1000 -1000 
-1000 -1000 -1000 -1000 -1000 -1000 -1000 -1000 -1000 
-1000 -1000 -1000 -1000 -1000 -1000 -1000 -1000 -1000 
-1000 -1000 -1000 -1000 -1000 -1000 -1000 -1000 -1000 
-1000 -1000 -1000 -1000 -1000 -1000 -1000 -1000 -1000 
-1000 -1000 -1000 -1000 -1000 -1000 -1000 -1000 -1000 
-1000 -1000 -1000 -1000 -1000 -1000 -1000 -1000 -1000 
-1000 -1000 -1000 -1000 -1000 -1000 -1000 -1000 -1000 
-1000 -1000 -1000 -1000 -1000 -1000 -1000 -1000 -1000 
-1000 -1000 -1000 -1000 -1000 -1000 -1000 -1000 -1000 
-1000 -1000 -1000 -1000 -1000 -1000 -1000 -1000 -1000 
-1000 -1000 -1000 -1000 -1000 -1000 -1000 -1000 -1000 
-1000 -1000 -1000 -1000 -1000 -1000 -1000 -1000 -1000 
-1000 -1000 -1000 -1000 -1000 -1000 -1000 -1000 -1000 
-1000 -1000 -1000 -1000 -1000 -1000 -1000 -1000 -1000 
-1000 -1000 -1000 -1000 -1000 -1000 -1000 -1000 -1000 
-1000 -1000 -1000 -1000 -1000 -1000 -1000 -1000 -1000 
-1000 -1000 -1000 -1000 -1000 -1000 -1000 -1000 -1000 
-1000 -1000 -1000 -1000 -1000 -1000 -1000 -1000 -1000 
-1000 -1000 -1000 -1000 -1000 -1000 -1000 -1000 -1000 
-1000 -1000 -1000 -1000 -1000 -1000 -1000 -1000 -1000 
-1000 -1000 -1000 -1000 -1000 -1000 -1000 -1000 -1000 
-1000 -1000 -1000 -1000 -1000 -1000 -1000 -1000 -1000 
-1000 -1000 -1000 -1000 -1000 -1000 -1000 -1000 -1000 
-1000 -1000 -1000 -1000 -1000 -1000 -1000 -1000 -1000 
-1000 -1000 -1000 -1000 -1000 -1000 -1000 -1000 -1000 
-1000 -1000 -1000 -1000 -1000 -1000 -1000 -1000 -1000 
-1000 -1000 -1000 -1000 -1000 -1000 -1000 -1000 -1000 
-1000 -1000 -1000 -1000 -1000 -1000 -1000 -1000 -1000 
-1000 -1000 -1000 -1000 -1000 -1000 -1000 -1000 -1000 
-1000 -1000 -1000 -1000 -1000 -1000 -1000 -1000 -1000 
-1000 -1000 -1000 -1000 -1000 -1000 -1000 -1000 -1000 
-1000 -1000 -1000 -1000 -1000 -1000 -1000 -1000 -1000 
-1000 -1000 -1000 -1000 -1000 -1000 -1000 -1000 -1000 
-1000 -1000 -1000 -1000 -1000 -1000 -1000 -1000 -1000 
-1000 -1000 -1000 -1000 -1000 -1000 -1000 -1000 -1000 
-1000 -1000 -1000 -1000 -1000 -1000 -1000 -1000 -1000 
-1000 -1000 -1000 -1000 -1000 -1000 -1000 -1000 -1000 
-1000 -1000 -1000 -1000 -1000 -1000 -1000 -1000 -1000 
-1000 -1000 -1000 -1000 -1000 -1000 -1000 -1000 -1000 
-1000 -1000 -1000 -1000 -1000 -1000 -1000 -1000 -1000 
-1000 -1000 -1000 -1000 -1000 -1000 -1000 -1000 -1000 
-1000 -1000 -1000 -1000 -1000 -1000 -1000 -1000 -1000 
-1000 -1000 -1000 -1000 -1000 -1000 -1000 -1000 -1000 
-1000 -1000 -1000 -1000 -1000 -1000 -1000 -1000 -1000 
-1000 -1000 -1000 -1000 -1000 -1000 -1000 -1000 -1000 
-1000 -1000 -1000 -1000 -1000 -1000 -1000 -1000 -1000 
-1000 -1000 -1000 -1000 -1000 -1000 -1000 -1000 -1000 
-1000 -1000 -1000 -1000 -1000 -1000 -1000 -1000 -1000 
-1000 -1000 -1000 -1000 -1000 -1000 -1000 -1000 -1000 
-1000 -1000 -1000 -1000 -1000 -1000 -1000 -1000 -1000 
-1000 -1000 -1000 -1000 -1000 -1000 -1000 -1000 -1000 
-1000 -1000 -1000 -1000 -1000 -1000 -1000 -1000 -1000 
-1000 -1000 -1000 -1000 -1000 -1000 -1000 -1000 -1000 
-1000 -1000 -1000 -1000 -1000 -1000 -1000 -1000 -1000 
-1000 -1000 -1000 -1000 -1000 -1000 -1000 -1000 -1000 
-1000 -1000 -1000 -1000 -1000 -1000 -1000 -1000 -1000 
-1000 -1000 -1000 -1000 -1000 -1000 -1000 -1000 -1000 
-1000 -1000 -1000 -1000 -1000 -1000 -1000 -1000 -1000 
-1000 -1000 -1000 -1000 -1000 -1000 -1000 -1000 -1000 
-1000 -1000 -1000 -1000 -1000 -1000 -1000 -1000 -1000 
-1000 -1000 -1000 -1000 -1000 -1000 -1000 -1000 -1000 
-1000 -1000 -1000 -1000 -1000 -1000 -1000 -1000 -1000 
-1000 -1000 -1000 -1000 -1000 -1000 -1000 -1000 -1000 
-1000 -1000 -1000 -1000 -1000 -1000 -1000 -1000 -1000 
-1000 -1000 -1000 -1000 -1000 -1000 -1000 -1000 -1000 
-1000 -1000 -1000 -1000 -1000 -1000 -1000 -1000 -1000 
-1000 -1000 -1000 -1000 -1000 -1000 -1000 -1000 -1000 
-1000 -1000 -1000 -1000 -1000 -1000 -1000 -1000 -1000 
-1000 -1000 -1000 -1000 -1000 -1000 -1000 -1000 -1000 
-1000 -1000 -1000 -1000 -1000 -1000 -1000 -1000 -1000 
-1000 -1000 -1000 -1000 -1000 -1000 -1000 -1000 -1000 
-1000 -1000 -1000 -1000 -1000 -1000 -1000 -1000 -1000 
-1000 -1000 -1000 -1000 -1000 -1000 -1000 -1000 -1000 
-1000 -1000 -1000 -1000 -1000 -1000 -1000 -1000 -1000 
-1000 -1000 -1000 -1000 -1000 -1000 -1000 -1000 -1000 
-1000 -1000 -1000 -1000 -1000 -1000 -1000 -1000 -1000 
-1000 -1000 -1000 -1000 -1000 -1000 -1000 -1000 -1000 
-1000 -1000 -1000 -1000 -1000 -1000 -1000 -1000 -1000 
-1000 -1000 -1000 -1000 -1000 -1000 -1000 -1000 -1000 
-1000 -1000 -1000 -1000 -1000 -1000 -1000 -1000 -1000 
-1000 -1000 -1000 -1000 -1000 -1000 -1000 -1000 -1000 
-1000 -1000 -1000 -1000 -1000 -1000 -1000 -1000 -1000 
-1000 -1000 -1000 -1000 -1000 -1000 -1000 -1000 -1000 
-1000 -1000 -1000 -1000 -1000 -1000 -1000 -1000 -1000 
-1000 -1000 -1000 -1000 -1000 -1000 -1000 -1000 -1000 
-1000 -1000 -1000 -1000 -1000 -1000 -1000 -1000 -1000 
-1000 -1000 -1000 -1000 -1000 -1000 -1000 -1000 -1000 
-1000 -1000 -1000 -1000 -1000 -1000 -1000 -1000 -1000 
-1000 -1000 -1000 -1000 -1000 -1000 -1000 -1000 -1000 
-1000 -1000 -1000 -1000 -1000 -1000 -1000 -1000 -1000 
-1000 -1000 -1000 -1000 -1000 -1000 -1000 -1000 -1000 
-1000 -1000 -1000 -1000 -1000 -1000 -1000 -1000 -1000 
-1000 -1000 -1000 -1000 -1000 -1000 -1000 -1000 -1000 
-1000 -1000 -1000 -1000 -1000 -1000 -1000 -1000 -1000 
-1000 -1000 -1000 -1000 -1000 -1000 -1000 -1000 -1000 
-1000 -1000 -1000 -1000 -1000 -1000 -1000 -1000 -1000 
-1000 -1000 -1000 -1000 -1000 -1000 -1000 -1000 -1000 
-1000 -1000 -1000 -1000 -1000 -1000 -1000 -1000 -1000 
-1000 -1000 -1000 -1000 -1000 -1000 -1000 -1000 -1000 
-1000 -1000 -1000 -1000 -1000 -1000 -1000 -1000 -1000 
-1000 -1000 -1000 -1000 -1000 -1000 -1000 -1000 -1000 
-1000 -1000 -1000 -1000 -1000 -1000 -1000 -1000 -1000 
-1000 -1000 -1000 -1000 -1000 -1000 -1000 -1000 -1000 
-1000 -1000 -1000 -1000 -1000 -1000 -1000 -1000 -1000 
-1000 -1000 -1000 -1000 -1000 -1000 -1000 -1000 -1000 
-1000 -1000 -1000 -1000 -1000 -1000 -1000 -1000 -1000 
-1000 -1000 -1000 -1000 -1000 -1000 -1000 -1000 -1000 
-1000 -1000 -1000 -1000 -1000 -1000 -1000 -1000 -1000 
-1000 -1000 -1000 -1000 -1000 -1000 -1000 -1000 -1000 
-1000 -1000 -1000 -1000 -1000 -1000 -1000 -1000 -1000 
-1000 -1000 -1000 -1000 -1000 -1000 -1000 -1000 -1000 
-1000 -1000 -1000 -1000 -1000 -1000 -1000 -1000 -1000 
-1000 -1000 -1000 -1000 -1000 -1000 -1000 -1000 -1000 
-1000 -1000 -1000 -1000 -1000 -1000 -1000 -1000 -1000 
-1000 -1000 -1000 -1000 -1000 -1000 -1000 -1000 -1000 
-1000 -1000 -1000 -1000 -1000 -1000 -1000 -1000 -1000 
-1000 -1000 -1000 -1000 -1000 -1000 -1000 -1000 -1000 
-1000 -1000 -1000 -1000 -1000 -1000 -1000 -1000 -1000 
-1000 -1000 -1000 -1000 -1000 -1000 -1000 -1000 -1000 
-1000 -1000 -1000 -1000 -1000 -1000 -1000 -1000 -1000 
-1000 -1000 -1000 -1000 -1000 -1000 -1000 -1000 -1000 
-1000 -1000 -1000 -1000 -1000 -1000 -1000 -1000 -1000 
-1000 -1000 -1000 -1000 -1000 -1000 -1000 -1000 -1000 
-1000 -1000 -1000 -1000 -1000 -1000 -1000 -1000 -1000 
-1000 -1000 -1000 -1000 -1000 -1000 -1000 -1000 -1000 
-1000 -1000 -1000 -1000 -1000 -1000 -1000 -1000 -1000 
-1000 -1000 -1000 -1000 -1000 -1000 -1000 -1000 -1000 
-1000 -1000 -1000 -1000 -1000 -1000 -1000 -1000 -1000 
-1000 -1000 -1000 -1000 -1000 -1000 -1000 -1000 -1000 
-1000 -1000 -1000 -1000 -1000 -1000 -1000 -1000 -1000 
-1000 -1000 -1000 -1000 -1000 -1000 -1000 -1000 -1000 
-1000 -1000 -1000 -1000 -1000 -1000 -1000 -1000 -1000 
-1000 -1000 -1000 -1000 -1000 -1000 -1000 -1000 -1000 
-1000 -1000 -1000 -1000 -1000 -1000 -1000 -1000 -1000 
-1000 -1000 -1000 -1000 -1000 -1000 -1000 -1000 -1000 
-1000 -1000 -1000 -1000 -1000 -1000 -1000 -1000 -1000 
-1000 -1000 -1000 -1000 -1000 -1000 -1000 -1000 -1000 
-1000 -1000 -1000 -1000 -1000 -1000 -1000 -1000 -1000 
-1000 -1000 -1000 -1000 -1000 -1000 -1000 -1000 -1000 
-1000 -1000 -1000 -1000 -1000 -1000 -1000 -1000 -1000 
-1000 -1000 -1000 -1000 -1000 -1000 -1000 -1000 -1000 