# vtk DataFile Version 3.0
vtk output
ASCII
DATASET POLYDATA
POINTS 13638 float
-80.1634 -18.4678 -72.3837 -80.3687 -18.3244 -72.3848 -80.3648 -18.2785 -72.3391 
-80.372 -18.3214 -72.3848 -81.1921 -17.6662 -72.3882 -81.1776 -17.6387 -72.2182 
-81.6668 -17.1819 -72.3885 -82.7 -15.8074 -72.3847 -82.7741 -15.6281 -72.3832 
-82.7141 -15.7369 -72.193 -82.2986 -16.4112 -72.3872 -65.3506 -19.2849 -72.1621 
-65.6043 -19.4214 -72.1681 -65.718 -19.498 -71.9663 -66.2051 -19.6047 -72.1802 
-66.3972 -19.656 -72.184 -67.2261 -19.8458 -72.1999 -67.3578 -19.9685 -71.7872 
-67.6932 -19.9925 -72.2094 -67.9917 -20.1254 -71.9397 -67.9207 -20.0704 -72.2141 
-68.6545 -20.3656 -72.23 -68.9201 -20.4479 -72.2354 -68.9069 -20.49 -71.9412 
-69.6781 -20.6895 -72.2509 -69.9027 -20.8475 -71.8045 -70.5381 -20.8625 -72.267 
-70.8555 -20.9161 -72.2728 -71.1319 -20.9863 -72.0673 -70.7707 -21.166 -71.416 
-70.2085 -20.7948 -72.2608 -71.596 -21.213 -71.6207 -71.1678 -20.9705 -72.2785 
-73.0822 -21.1156 -72.3109 -73.1969 -21.0959 -72.1955 -72.4846 -21.1179 -72.3015 
-72.4159 -21.1782 -71.9101 -72.044 -21.0689 -72.2938 -71.5368 -21.0277 -72.2852 
-73.1716 -21.3157 -71.2957 -73.1616 -21.1136 -72.3121 -73.4442 -21.0685 -72.3159 
-73.978 -20.9859 -72.3231 -74.1259 -20.9657 -72.3251 -74.4428 -21.1433 -71.2908 
-75.381 -20.7 -72.341 -75.6359 -20.6429 -72.3442 -76.0451 -20.589 -72.0537 
-75.386 -20.8936 -71.5767 -75.2477 -20.7215 -72.3392 -76.0234 -20.8158 -71.2231 
-76.1362 -20.5256 -72.3504 -76.9747 -20.2617 -72.3597 -76.99 -20.2572 -72.3599 
-76.9954 -20.2549 -72.36 -77.2243 -20.2871 -71.2963 -78.2076 -19.706 -72.371 
-78.2363 -19.6896 -72.3712 -78.3566 -19.6324 -71.349 -79.3357 -19.0433 -72.3791 
-79.3488 -19.0343 -72.3792 -79.4257 -18.9206 -71.3829 -80.4412 -18.1988 -71.3851 
-81.4071 -17.4286 -71.3923 -81.9663 -16.8724 -72.3887 -82.0465 -16.7909 -72.3888 
-82.2891 -16.5372 -71.3145 -83.1527 -14.6547 -71.9317 -82.9616 -15.5614 -71.1001 
-83.0965 -14.7615 -72.3756 -83.3157 -13.5608 -72.3614 -83.3534 -12.712 -72.3496 
-83.3748 -13.5769 -71.6646 -83.2087 -14.1873 -72.3689 -83.0541 -10.5684 -72.3134 
-83.0223 -10.3703 -72.31 -83.0106 -10.5756 -72.1193 -83.2549 -11.589 -72.3315 
-83.241 -11.5059 -72.3301 -83.2069 -11.5946 -72.2351 -83.2966 -12.0019 -72.3382 
-61.5654 -15.9481 -72.0534 -61.9177 -16.1603 -72.0621 -62.0032 -16.2521 -71.9263 
-62.0242 -16.2386 -72.0649 -62.9543 -17.0317 -72.0912 -63.0709 -17.17 -72.0951 
-63.0846 -17.1601 -71.8837 -62.7858 -16.8606 -72.086 -63.6125 -17.7693 -72.1124 
-63.9621 -18.1564 -72.1236 -63.9487 -18.1153 -71.5685 -64.2853 -18.4936 -72.1336 
-64.8855 -19.0007 -72.1506 -64.8204 -19.0198 -71.2716 -66.0767 -19.7655 -71.5481 
-65.7322 -19.7256 -71.1178 -65.0549 -19.1296 -72.1551 -66.4862 -20.104 -70.9676 
-66.3009 -19.6352 -72.1822 -67.8923 -20.307 -71.2049 -67.3081 -20.3528 -70.8253 
-66.3393 -19.6458 -72.1829 -66.3198 -19.6411 -72.1826 -68.1123 -20.6327 -70.5446 
-68.6846 -20.7111 -70.8552 -70.214 -21.1874 -71.0756 -69.644 -21.0666 -70.8921 
-70.5545 -21.4673 -70.3481 -72.1944 -21.4217 -71.1056 -71.4792 -21.5035 -70.694 
-72.3367 -21.6338 -70.2916 -73.4637 -21.5856 -70.1015 -74.4623 -21.4035 -70.3947 
-75.0793 -21.1582 -70.9229 -75.1739 -21.2936 -70.219 -76.1966 -20.9087 -70.21 
-77.3193 -20.3089 -70.263 -78.4045 -19.6159 -70.3224 -79.4667 -18.8852 -70.3775 
-80.5151 -18.131 -70.4071 -81.535 -17.3238 -70.3668 -82.5057 -16.3839 -70.158 
-83.3953 -14.5434 -70.6143 -83.1472 -15.4803 -70.2429 -83.4187 -12.6233 -71.4377 
-83.5164 -13.4557 -70.8296 -83.3564 -12.579 -72.3477 -82.8577 -9.63569 -71.9889 
-83.0871 -10.5216 -71.1593 -82.8927 -9.62021 -72.2969 -83.3356 -11.6994 -71.0494 
-82.8264 -8.73629 -72.2829 -82.7937 -7.99347 -72.2715 -82.8399 -8.8087 -71.5812 
-82.8618 -9.255 -72.2911 -82.7638 -6.91439 -72.2552 -82.7606 -6.75626 -72.2528 
-82.7273 -6.92486 -72.1167 -82.7678 -7.31101 -72.2611 -59.3551 -14.1843 -71.9927 
-59.4484 -14.27 -71.9954 -59.4634 -14.2736 -71.8371 -59.1228 -13.9345 -71.9853 
-60.0037 -14.8017 -72.0119 -60.3532 -15.0584 -72.0212 -60.2962 -15.1044 -71.5153 
-60.7458 -15.3869 -72.0322 -61.3416 -15.8041 -72.0478 -61.1615 -15.9112 -71.184 
-62.6001 -16.8603 -71.4485 -62.0753 -16.6861 -70.9253 -61.3899 -15.8405 -72.049 
-63.2064 -17.4754 -70.9873 -62.9479 -17.5073 -70.4266 -63.5492 -17.9919 -70.2824 
-62.3538 -16.4769 -72.0736 -63.7873 -18.027 -70.7924 -64.6632 -18.9747 -70.2355 
-65.6047 -19.8362 -70.0113 -66.908 -20.4776 -70.3424 -66.5265 -20.4563 -69.9299 
-67.319 -20.8041 -69.777 -68.6383 -21.0036 -69.9718 -68.0042 -20.9105 -69.8556 
-68.7094 -21.3742 -69.0067 -69.6379 -21.4146 -69.633 -70.6896 -21.7596 -69.3755 
-71.4356 -21.7638 -69.7233 -72.2571 -21.9075 -69.1035 -73.3264 -21.8733 -68.9175 
-74.2439 -21.6202 -69.5605 -75.0564 -21.4957 -69.1231 -76.2655 -20.9772 -69.1455 
-77.3787 -20.356 -69.1877 -78.4774 -19.6563 -69.2794 -79.5577 -18.9056 -69.3859 
-80.6099 -18.1366 -69.4204 -81.6126 -17.3458 -69.3523 -82.3774 -16.6593 -69.1422 
-83.3527 -15.1259 -69.8948 -83.0542 -15.7431 -69.3827 -83.5406 -12.8104 -70.6028 
-83.5913 -13.6284 -70.0102 -83.4765 -14.6763 -69.3608 -82.9678 -9.74376 -71.183 
-83.1375 -10.2984 -70.5097 -83.3534 -11.3209 -69.9695 -83.5647 -12.5857 -69.8841 
-82.8109 -7.82858 -71.3972 -82.9713 -8.62717 -70.6068 -82.7841 -7.80274 -72.2685 
-83.0509 -9.52168 -70.522 -82.7317 -6.06652 -71.7789 -82.8296 -7.02715 -70.919 
-82.7513 -6.05721 -72.2424 -82.7186 -4.46432 -72.2185 -82.6989 -4.41017 -72.1975 
-82.7394 -5.21793 -72.2299 -82.7489 -5.21942 -71.4487 -82.7177 -4.40465 -72.2176 
-82.7408 -5.54458 -72.2347 -82.6679 -3.58298 -72.2048 -82.6346 -3.28745 -72.1999 
-82.6539 -3.57737 -71.9161 -82.7164 -4.38008 -72.2173 -57.6232 -12.2491 -71.9369 
-57.8323 -12.4819 -71.9436 -57.8483 -12.4403 -71.6003 -57.1037 -11.683 -71.9204 
-58.1928 -12.8889 -71.9553 -58.6309 -13.3877 -71.9695 -58.6386 -13.307 -71.2305 
-58.7635 -13.5392 -71.9739 -59.4284 -14.1823 -70.8589 -60.2243 -15.0463 -70.5046 
-61.0335 -15.8921 -70.1678 -61.87 -16.7338 -69.8456 -62.7314 -17.585 -69.5278 
-64.1495 -18.6414 -69.8067 -63.6319 -18.4176 -69.2912 -64.783 -19.3006 -69.3095 
-64.4967 -19.2724 -68.8012 -65.1072 -19.7632 -68.6071 -65.5045 -19.936 -68.9635 
-66.4259 -20.6426 -68.8036 -67.8884 -21.1843 -69.117 -67.2694 -21.0785 -68.8636 
-68.0978 -21.4883 -68.2778 -68.9316 -21.7805 -67.8999 -69.6357 -21.7855 -68.3503 
-71.2653 -21.9519 -68.9162 -70.5103 -21.9171 -68.5947 -71.3874 -22.1314 -68.1179 
-72.4912 -22.1557 -67.8934 -73.4505 -22.0236 -68.178 -74.044 -21.825 -68.7482 
-74.1819 -21.9148 -68.0448 -75.2079 -21.5763 -68.0277 -76.3293 -21.0807 -68.0395 
-77.4931 -20.5204 -68.018 -78.7126 -19.7346 -68.3337 -79.7764 -18.9781 -68.4661 
-80.8099 -18.1941 -68.4963 -81.7926 -17.3841 -68.4296 -82.7139 -16.428 -68.2987 
-83.2739 -15.4282 -68.5503 -83.6328 -13.5817 -69.0041 -83.554 -14.594 -68.2133 
-83.2366 -10.3719 -69.6289 -83.4134 -11.3639 -68.7106 -83.5795 -12.4578 -68.8488 
-82.9407 -7.9232 -70.5701 -83.0749 -8.44194 -69.9365 -83.1602 -9.33258 -69.5161 
-82.7944 -6.05067 -70.6684 -82.9056 -6.86535 -69.7942 -83.0216 -7.74089 -69.8771 
-82.7545 -4.39539 -71.1081 -82.8096 -5.201 -70.3418 -82.5354 -2.71061 -71.7047 
-82.681 -3.53787 -70.83 -82.5584 -2.73225 -72.1906 -82.3404 -0.401423 -72.1529 
-82.3496 -0.291655 -72.1222 -82.2886 -1.08197 -72.1621 -82.2948 -1.05058 -71.45 
-82.3489 -0.302038 -72.1516 -82.4056 -1.8695 -72.1755 -82.3173 -1.31112 -72.1659 
-82.3867 -1.83213 -71.5539 -82.4732 -2.26192 -72.1823 -82.3575 -0.267165 -72.1512 
-82.5668 0.500799 -72.1433 -82.5725 0.512314 -72.1302 -82.7517 1.16714 -72.1364 
-82.9133 1.91097 -72.128 -82.7642 1.17946 -71.6377 -82.5751 0.532602 -72.1429 
-83.0272 2.74072 -72.1177 -83.0287 3.33137 -72.109 -83.0779 2.77405 -71.6597 
-82.9248 1.97082 -72.1273 -82.6486 5.39398 -72.0728 -82.5604 5.73732 -72.0663 
-82.6992 5.38925 -71.7629 -82.8875 4.47981 -72.09 -82.8662 4.55777 -72.0885 
-82.9049 4.49801 -72.0229 -82.9254 4.24054 -72.0941 -81.3662 8.9029 -72.0011 
-81.3311 8.99368 -71.9992 -81.3744 8.9248 -71.9302 -81.5309 8.53749 -72.009 
-79.816 12.3841 -71.9255 -79.8091 12.4002 -71.9252 -79.7971 12.4028 -71.9266 
-79.8457 12.324 -71.9269 -55.2871 -9.80714 -71.8643 -55.4226 -9.94384 -71.8684 
-55.4382 -9.9114 -71.6715 -54.8797 -9.39317 -71.8518 -55.8726 -10.4029 -71.8822 
-56.219 -10.7562 -71.8929 -56.221 -10.6992 -71.3633 -56.4617 -11.0079 -71.9004 
-57.0277 -11.6006 -71.918 -57.015 -11.5113 -71.0236 -57.0494 -11.6239 -71.9187 
-57.8126 -12.3478 -70.6585 -58.6084 -13.2056 -70.2787 -59.3988 -14.0763 -69.8989 
-60.1802 -14.9456 -69.5363 -60.9439 -15.7864 -69.2146 -61.7142 -16.6308 -68.8691 
-62.549 -17.5451 -68.5068 -63.4209 -18.4723 -68.2154 -64.2805 -19.34 -67.937 
-65.5964 -20.2383 -68.1016 -65.158 -20.0839 -67.7291 -65.8673 -20.6389 -67.3982 
-46.2086 0.330317 -71.5723 -46.3246 0.0605439 -71.5781 -46.237 0.0656032 -71.3818 
-46.3954 -0.0769624 -71.5812 -46.576 -0.395174 -71.5888 -66.321 -20.8087 -67.7364 
-67.368 -21.4196 -67.6566 -68.358 -21.8836 -67.2802 -45.5172 2.87539 -71.5241 
-45.561 2.64311 -71.5282 -45.435 2.67136 -71.3558 -45.5816 2.52555 -71.5302 
-45.7853 1.541 -71.5479 -45.7081 1.55603 -71.4808 -45.799 1.47625 -71.549 
-45.8433 1.33261 -71.5518 -69.1228 -22.2012 -66.892 -69.5845 -22.0411 -67.5317 
-69.8428 -22.3161 -66.9428 -44.9944 5.91372 -71.4712 -45.0585 5.17042 -71.4832 
-44.8207 5.34277 -70.9097 -45.2324 4.26014 -71.4993 -45.2519 4.16188 -71.501 
-45.165 4.20287 -71.4215 -45.2676 4.11154 -71.502 -45.3061 3.94726 -71.505 
-70.3875 -22.1825 -67.5505 -71.327 -22.4259 -66.9167 -45.0256 6.62406 -71.4613 
-44.8332 6.59338 -71.0487 -45.0763 7.0147 -71.4564 -44.9426 7.41241 -71.0532 
-45.1188 7.40031 -71.4514 -44.9943 5.92823 -71.471 -72.3622 -22.4141 -66.7524 
-45.1947 8.22633 -71.4405 -44.9347 8.43221 -70.5116 -45.2301 8.75046 -71.4333 
-45.1526 9.06091 -71.3323 -45.2491 8.98479 -71.4302 -45.1596 7.89637 -71.4448 
[...]
POINT_DATA 13638
SCALARS scalars float
LOOKUP_TABLE default
-1000 -1000 -1000 -1000 -1000 -1000 -1000 -1000 -1000 
-1000 -1000 -1000 -1000 -1000 -1000 -1000 -1000 -1000 
-1000 -1000 -1000 -1000 -1000 -1000 -1000 -1000 -1000 
-1000 -1000 -1000 -1000 -1000 -1000 -1000 -1000 -1000 
-1000 -1000 -1000 -1000 -1000 -1000 -1000 -1000 -1000 
-1000 -1000 -1000 -1000 -1000 -1000 -1000 -1000 -1000 
-1000 -1000 -1000 -1000 -1000 -1000 -1000 -1000 -1000 
-1000 -1000 -1000 -1000 -1000 -1000 -1000 -1000 -1000 
-1000 -1000 -1000 -1000 -1000 -1000 -1000 -1000 -1000 
-1000 -1000 -1000 -1000 -1000 -1000 -1000 -1000 -1000 
-1000 -1000 -1000 -1000 -1000 -1000 -1000 -1000 -1000 
-1000 -1000 -1000 -1000 -1000 -1000 -1000 -1000 -1000 
-1000 -1000 -1000 -1000 -1000 -1000 -1000 -1000 -1000 
-1000 -1000 -1000 -1000 -1000 -1000 -1000 -1000 -1000 
-1000 -1000 -1000 -1000 -1000 -1000 -1000 -1000 -1000 
-1000 -1000 -1000 -1000 -1000 -1000 -1000 -1000 -1000 
-1000 -1000 -1000 -1000 -1000 -1000 -1000 -1000 -1000 
-1000 -1000 -1000 -1000 -1000 -1000 -1000 -1000 -1000 
-1000 -1000 -1000 -1000 -1000 -1000 -1000 -1000 -1000 
-1000 -1000 -1000 -1000 -1000 -1000 -1000 -1000 -1000 
-1000 -1000 -1000 -1000 -1000 -1000 -1000 -1000 -1000 
-1000 -1000 -1000 -1000 -1000 -1000 -1000 -1000 -1000 
-1000 -1000 -1000 -1000 -1000 -1000 -1000 -1000 -1000 
-1000 -1000 -1000 -1000 -1000 -1000 -1000 -1000 -1000 
-1000 -1000 -1000 -1000 -1000 -1000 -1000 -1000 -1000 
-1000 -1000 -1000 -1000 -1000 -1000 -1000 -1000 -1000 
-1000 -1000 -1000 -1000 -1000 -1000 -1000 -1000 -1000 
-1000 -1000 -1000 -1000 -1000 -1000 -1000 -1000 -1000 
-1000 -1000 -1000 -1000 -1000 -1000 -1000 -1000 -1000 
-1000 -1000 -1000 -1000 -1000 -1000 -1000 -1000 -1000 
-1000 -1000 -1000 -1000 -1000 -1000 -1000 -1000 -1000 
-1000 -1000 -1000 -1000 -1000 -1000 -1000 -1000 -1000 
-1000 -1000 -1000 -1000 -1000 -1000 -1000 -1000 -1000 
-1000 -1000 -1000 -1000 -1000 -1000 -1000 -1000 -1000 
-1000 -1000 -1000 -1000 -1000 -1000 -1000 -1000 -1000 
-1000 -1000 -1000 -1000 -1000 -1000 -1000 -1000 -1000 
-1000 -1000 -1000 -1000 -1000 -1000 -1000 -1000 -1000 
-1000 -1000 -1000 -1000 -1000 -1000 -1000 -1000 -1000 
-1000 -1000 -1000 -1000 -1000 -1000 -1000 -1000 -1000 
-1000 -1000 -1000 -1000 -1000 -1000 -1000 -1000 -1000 
-1000 -1000 -1000 -1000 -1000 -1000 -1000 -1000 -1000 
-1000 -1000 -1000 -1000 -1000 -1000 -1000 -1000 -1000 
-1000 -1000 -1000 -1000 -1000 -1000 -1000 -1000 -1000 
-1000 -1000 -1000 -1000 -1000 -1000 -1000 -1000 -1000 
-1000 -1000 -1000 -1000 -1000 -1000 -1000 -1000 -1000 
-1000 -1000 -1000 -1000 -1000 -1000 -1000 -1000 -1000 
-1000 -1000 -1000 -1000 -1000 -1000 -1000 -1000 -1000 
-1000 -1000 -1000 -1000 -1000 -1000 -1000 -1000 -1000 
-1000 -1000 -1000 -1000 -1000 -1000 -1000 -1000 -1000 
-1000 -1000 -1000 -1000 -1000 -1000 -1000 -1000 -1000 
-1000 -1000 -1000 -1000 -1000 -1000 -1000 -1000 -1000 
-1000 -1000 -1000 -1000 -1000 -1000 -1000 -1000 -1000 
-1000 -1000 -1000 -1000 -1000 -1000 -1000 -1000 -1000 
-1000 -1000 -1000 -1000 -1000 -1000 -1000 -1000 -1000 
-1000 -1000 -1000 -1000 -1000 -1000 -1000 -1000 -1000 
-1000 -1000 -1000 -1000 -1000 -1000 -1000 -1000 -1000 
-1000 -1000 -1000 -1000 -1000 -1000 -1000 -1000 -1000 
-1000 -1000 -1000 -1000 -1000 -1000 -1000 -1000 -1000 
-1000 -1000 -1000 -1000 -1000 -1000 -1000 -1000 -1000 
-1000 -1000 -1000 -1000 -1000 -1000 -1000 -1000 -1000 
-1000 -1000 -1000 -1000 -1000 -1000 -1000 -1000 -1000 
-1000 -1000 -1000 -1000 -1000 -1000 -1000 -1000 -1000 
-1000 -1000 -1000 -1000 -1000 -1000 -1000 -1000 -1000 
-1000 -1000 -1000 -1000 -1000 -1000 -1000 -1000 -1000 
-1000 -1000 -1000 -1000 -1000 -1000 -1000 -1000 -1000 
-1000 -1000 -1000 -1000 -1000 -1000 -1000 -1000 -1000 
-1000 -1000 -1000 -1000 -1000 -1000 -1000 -1000 -1000 
-1000 -1000 -1000 -1000 -1000 -1000 -1000 -1000 -1000 
-1000 -1000 -1000 -1000 -1000 -1000 -1000 -1000 -1000 
-1000 -1000 -1000 -1000 -1000 -1000 -1000 -1000 -1000 
-1000 -1000 -1000 -1000 -1000 -1000 -1000 -1000 -1000 
-1000 -1000 -1000 -1000 -1000 -1000 -1000 -1000 -1000 
-1000 -1000 -1000 -1000 -1000 -1000 -1000 -1000 -1000 
-1000 -1000 -1000 -1000 -1000 -1000 -1000 -1000 -1000 
-1000 -1000 -1000 -1000 -1000 -1000 -1000 -1000 -1000 
-1000 -1000 -1000 -1000 -1000 -1000 -1000 -1000 -1000 
-1000 -1000 -1000 -1000 -1000 -1000 -1000 -1000 -1000 
-1000 -1000 -1000 -1000 -1000 -1000 -1000 -1000 -1000 
-1000 -1000 -1000 -1000 -1000 -1000 -1000 -1000 -1000 
-1000 -1000 -1000 -1000 -1000 -1000 -1000 -1000 -1000 
-1000 -1000 -1000 -1000 -1000 -1000 -1000 -1000 -1000 
-1000 -1000 -1000 -1000 -1000 -1000 -1000 -1000 -1000 
-1000 -1000 -1000 -1000 -1000 -1000 -1000 -1000 -1000 
-1000 -1000 -1000 -1000 -1000 -1000 -1000 -1000 -1000 
-1000 -1000 -1000 -1000 -1000 -1000 -1000 -1000 -1000 
-1000 -1000 -1000 -1000 -1000 -1000 -1000 -1000 -1000 
-1000 -1000 -1000 -1000 -1000 -1000 -1000 -1000 -1000 
-1000 -1000 -1000 -1000 -1000 -1000 -1000 -1000 -1000 
-1000 -1000 -1000 -1000 -1000 -1000 -1000 -1000 -1000 
-1000 -1000 -1000 -1000 -1000 -1000 -1000 -1000 -1000 
-1000 -1000 -1000 -1000 -1000 -1000 -1000 -1000 -1000 
-1000 -1000 -1000 -1000 -1000 -1000 -1000 -1000 -1000 
-1000 -1000 -1000 -1000 -1000 -1000 -1000 -1000 -1000 
-1000 -1000 -1000 -1000 -1000 -1000 -1000 -1000 -1000 
-1000 -1000 -1000 -1000 -1000 -1000 -1000 -1000 -1000 
-1000 -1000 -1000 -1000 -1000 -1000 -1000 -1000 -1000 
-1000 -1000 -1000 -1000 -1000 -1000 -1000 -1000 -1000 
-1000 -1000 -1000 -1000 -1000 -1000 -1000 -1000 -1000 
-1000 -1000 -1000 -1000 -1000 -1000 -1000 -1000 -1000 
-1000 -1000 -1000 -1000 -1000 -1000 -1000 -1000 -1000 
-1000 -1000 -1000 -1000 -1000 -1000 -1000 -1000 -1000 
-1000 -1000 -1000 -1000 -1000 -1000 -1000 -1000 -1000 
-1000 -1000 -1000 -1000 -1000 -1000 -1000 -1000 -1000 
-1000 -1000 -1000 -1000 -1000 -1000 -1000 -1000 -1000 
-1000 -1000 -1000 -1000 -1000 -1000 -1000 -1000 -1000 
-1000 -1000 -1000 -1000 -1000 -1000 -1000 -1000 -1000 
-1000 -1000 -1000 -1000 -1000 -1000 -1000 -1000 -1000 
-1000 -1000 -1000 -1000 -1000 -1000 -1000 -1000 -1000 
-1000 -1000 -1000 -1000 -1000 -1000 -1000 -1000 -1000 
-1000 -1000 -1000 -1000 -1000 -1000 -1000 -1000 -1000 
-1000 -1000 -1000 -1000 -1000 -1000 -1000 -1000 -1000 
-1000 -1000 -1000 -1000 -1000 -1000 -1000 -1000 -1000 
-1000 -1000 -1000 -1000 -1000 -1000 -1000 -1000 -1000 
-1000 -1000 -1000 -1000 -1000 -1000 -1000 -1000 -1000 
-1000 -1000 -1000 -1000 -1000 -1000 -1000 -1000 -1000 
-1000 -1000 -1000 -1000 -1000 -1000 -1000 -1000 -1000 
-1000 -1000 -1000 -1000 -1000 -1000 -1000 -1000 -1000 
-1000 -1000 -1000 -1000 -1000 -1000 -1000 -1000 -1000 
-1000 -1000 -1000 -1000 -1000 -1000 -1000 -1000 -1000 
-1000 -1000 -1000 -1000 -1000 -1000 -1000 -1000 -1000 
-1000 -1000 -1000 -1000 -1000 -1000 -1000 -1000 -1000 
-1000 -1000 -1000 -1000 -1000 -1000 -1000 -1000 -1000 
-1000 -1000 -1000 -1000 -1000 -1000 -1000 -1000 -1000 
-1000 -1000 -1000 -1000 -1000 -1000 -1000 -1000 -1000 
-1000 -1000 -1000 -1000 -1000 -1000 -1000 -1000 -1000 
-1000 -1000 -1000 -1000 -1000 -1000 -1000 -1000 -1000 
-1000 -1000 -1000 -1000 -1000 -1000 -1000 -1000 -1000 
-1000 -1000 -1000 -1000 -1000 -1000 -1000 -1000 -1000 
-1000 -1000 -1000 -1000 -1000 -1000 -1000 -1000 -1000 
-1000 -1000 -1000 -1000 -1000 -1000 -1000 -1000 -1000 
-1000 -1000 -1000 -1000 -1000 -1000 -1000 -1000 -1000 
-1000 -1000 -1000 -1000 -1000 -1000 -1000 -1000 -1000 
-1000 -1000 -1000 -1000 -1000 -1000 -1000 -1000 -1000 
-1000 -1000 -1000 -1000 -1000 -1000 -1000 -1000 -1000 
-1000 -1000 -1000 -1000 -1000 -1000 -1000 -1000 -1000 
-1000 -1000 -1000 -1000 -1000 -1000 -1000 -1000 -1000 
-1000 -1000 -1000 -1000 -1000 -1000 -1000 -1000 -1000 
-1000 -1000 -1000 -1000 -1000 -1000 -1000 -1000 -1000 
-1000 -1000 -1000 -1000 -1000 -1000 -1000 -1000 -1000 
-1000 -1000 -1000 -1000 -1000 -1000 -1000 -1000 -1000 
-1000 -1000 -1000 -1000 -1000 -1000 -1000 -1000 -1000 
-1000 -1000 -1000 -1000 -1000 -1000 -1000 -1000 -1000 
-1000 -1000 -1000 -1000 -1000 -1000 -1000 -1000 -1000 
-1000 -1000 -1000 -1000 -1000 -1000 -1000 -1000 -1000 
-1000 -1000 -1000 -1000 -1000 -1000 -1000 -1000 -1000 
-1000 -1000 -1000 -1000 -1000 -1000 -1000 -1000 -1000 
-1000 -1000 -1000 -1000 -1000 -1000 -1000 -1000 -1000 
-1000 -1000 -1000 -1000 -1000 -1000 -1000 -1000 -1000 
-1000 -1000 -1000 -1000 -1000 -1000 -1000 -1000 -1000 
-1000 -1000 -1000 -1000 -1000 -1000 -1000 -1000 -1000 
-1000 -1000 -1000 -1000 -1000 -1000 -1000 -1000 -1000 
-1000 -1000 -1000 -1000 -1000 -1000 -1000 -1000 -1000 
-1000 -1000 -1000 -1000 -1000 -1000 -1000 -1000 -1000 
-1000 -1000 -1000 -1000 -1000 -1000 -1000 -1000 -1000 
-1000 -1000 -1000 -1000 -1000 -1000 -1000 -1000 -1000 
-1000 -1000 -1000 -1000 -1000 -1000 -1000 -1000 -1000 
-1000 -1000 -1000 -1000 -1000 -1000 -1000 -1000 -1000 
-1000 -1000 -1000 -1000 -1000 -1000 -1000 -1000 -1000 
-1000 -1000 -1000 -1000 -1000 -1000 -1000 -1000 -1000 
-1000 -1000 -1000 -1000 -1000 -1000 -1000 -1000 -1000 
-1000 -1000 -1000 -1000 -1000 -1000 -1000 -1000 -1000 
-1000 -1000 -1000 -1000 -1000 -1000 -1000 -1000 -1000 
-1000 -1000 -1000 -1000 -1000 -1000 -1000 -1000 -1000 
-1000 -1000 -1000 -1000 -1000 -1000 -1000 -1000 -1000 
-1000 -1000 -1000 -1000 -1000 -1000 -1000 -1000 -1000 
-1000 -1000 -1000 -1000 -1000 -1000 -1000 -1000 -1000 
-1000 -1000 -1000 -1000 -1000 -1000 -1000 -1000 -1000 
-1000 -1000 -1000 -1000 -1000 -1000 -1000 -1000 -1000 
-1000 -1000 -1000 -1000 -1000 -1000 -1000 -1000 -1000 
-1000 -1000 -1000 -1000 -1000 -1000 -1000 -1000 -1000 
-1000 -1000 -1000 -1000 -1000 -1000 -1000 -1000 -1000 
-1000 -1000 -1000 -1000 -1000 -1000 -1000 -1000 -1000 
-1000 -1000 -1000 -1000 -1000 -1000 -1000 -1000 -1000 
-1000 -1000 -1000 -1000 -1000 -1000 -1000 -1000 -1000 
-1000 -1000 -1000 -1000 -1000 -1000 -1000 -1000 -1000 
-1000 -1000 -1000 -1000 -1000 -1000 -1000 -1000 -1000 
-1000 -1000 -1000 -1000 -1000 -1000 -1000 -1000 -1000 
-1000 -1000 -1000 -1000 -1000 -1000 -1000 -1000 -1000 
-1000 -1000 -1000 -1000 -1000 -1000 -1000 -1000 -1000 
-1000 -1000 -1000 -1000 -1000 -1000 -1000 -1000 -1000 
-1000 -1000 -1000 -1000 -1000 -1000 -1000 -1000 -1000 
-1000 -1000 -1000 -1000 -1000 -1000 -1000 -1000 -1000 
-1000 -1000 -1000 -1000 -1000 -1000 -1000 -1000 -1000 
-1000 -1000 -1000 -1000 -1000 -1000 -1000 -1000 -1000 
-1000 -1000 -1000 -1000 -1000 -1000 -1000 -1000 -1000 
-1000 -1000 -1000 -1000 -1000 -1000 -1000 -1000 -1000 
-1000 -1000 -1000 -1000 -1000 -1000 -1000 -1000 -1000 
-1000 -1000 -1000 -1000 -1000 -1000 -1000 -1000 -1000 
-1000 -1000 -1000 -1000 -1000 -1000 -1000 -1000 -1000 
-1000 -1000 -1000 -1000 -1000 -1000 -1000 -1000 -1000 
-1000 -1000 -1000 -1000 -1000 -1000 -1000 -1000 -1000 
-1000 -1000 -1000 -1000 -1000 -1000 -1000 -1000 -1000 
-1000 -1000 -1000 -1000 -1000 -1000 -1000 -1000 -1000 
-1000 -1000 -1000 -1000 -1000 -1000 -1000 -1000 -1000 
-1000 -1000 -1000 -1000 -1000 -1000 -1000 -1000 -1000 
-1000 -1000 -1000 -1000 -1000 -1000 -1000 -1000 -1000 
-1000 -1000 -1000 -1000 -1000 -1000 -1000 -1000 -1000 
-1000 -1000 -1000 -1000 -1000 -1000 -1000 -1000 -1000 
-1000 -1000 -1000 -1000 -1000 -1000 -1000 -1000 -1000 
-1000 -1000 -1000 -1000 -1000 -1000 -1000 -1000 -1000 
-1000 -1000 -1000 -1000 -1000 -1000 -1000 -1000 -1000 
-1000 -1000 -1000 -1000 -1000 -1000 -1000 -1000 -1000 
-1000 -1000 -1000 -1000 -1000 -1000 -1000 -1000 -1000 
-1000 -1000 -1000 -1000 -1000 -1000 -1000 -1000 -1000 
-1000 -1000 -1000 -1000 -1000 -1000 -1000 -1000 -1000 
-1000 -1000 -1000 -1000 -1000 -1000 -1000 -1000 -1000 
-1000 -1000 -1000 -1000 -1000 -1000 -1000 -1000 -1000 
-1000 -1000 -1000 -1000 -1000 -1000 -1000 -1000 -1000 
-1000 -1000 -1000 -1000 -1000 -1000 -1000 -1000 -1000 
-1000 -1000 -1000 -1000 -1000 -1000 -1000 -1000 -1000 
-1000 -1000 -1000 -1000 -1000 -1000 -1000 -1000 -1000 
-1000 -1000 -1000 -1000 -1000 -1000 -1000 -1000 -1000 
-1000 -1000 -1000 -1000 -1000 -1000 -1000 -1000 -1000 
-1000 -1000 -1000 -1000 -1000 -1000 -1000 -1000 -1000 
-1000 -1000 -1000 -1000 -1000 -1000 -1000 -1000 -1000 
-1000 -1000 -1000 -1000 -1000 -1000 -1000 -1000 -1000 
-1000 -1000 -1000 -1000 -1000 -1000 -1000 -1000 -1000 
-1000 -1000 -1000 -1000 -1000 -1000 -1000 -1000 -1000 
-1000 -1000 -1000 -1000 -1000 -1000 -1000 -1000 -1000 
-1000 -1000 -1000 -1000 -1000 -1000 -1000 -1000 -1000 
-1000 -1000 -1000 -1000 -1000 -1000 -1000 -1000 -1000 
-1000 -1000 -1000 -1000 -1000 -1000 -1000 -1000 -1000 
-1000 -1000 -1000 -1000 -1000 -1000 -1000 -1000 -1000 
-1000 -1000 -1000 -1000 -1000 -1000 -1000 -1000 -1000 
-1000 -1000 -1000 -1000 -1000 -1000 -1000 -1000 -1000 
-1000 -1000 -1000 -1000 -1000 -1000 -1000 -1000 -1000 
-1000 -1000 -1000 -1000 -1000 -1000 -1000 -1000 -1000 
-1000 -1000 -1000 -1000 -1000 -1000 -1000 -1000 -1000 
-1000 -1000 -1000 -1000 -1000 -1000 -1000 -1000 -1000 
-1000 -1000 -1000 -1000 -1000 -1000 -1000 -1000 -1000 
-1000 -1000 -1000 -1000 -1000 -1000 -1000 -1000 -1000 
-1000 -1000 -1000 -1000 -1000 -1000 -1000 -1000 -1000 
-1000 -1000 -1000 -1000 -1000 -1000 -1000 -1000 -1000 
-1000 -1000 -1000 -1000 -1000 -1000 -1000 -1000 -1000 
-1000 -1000 -1000 -1000 -1000 -1000 -1000 -1000 -1000 
-1000 -1000 -1000 -1000 -1000 -1000 -1000 -1000 -1000 
-1000 -1000 -1000 -1000 -1000 -1000 -1000 -1000 -1000 
-1000 -1000 -1000 -1000 -1000 -1000 -1000 -1000 -1000 
-1000 -1000 -1000 -1000 -1000 -1000 -1000 -1000 -1000 
-1000 -1000 -1000 -1000 -1000 -1000 -1000 -1000 -1000 
-1000 -1000 -1000 -1000 -1000 -1000 -1000 -1000 -1000 
-1000 -1000 -1000 -1000 -1000 -1000 -1000 -1000 -1000 
-1000 -1000 -1000 -1000 -1000 -1000 -1000 -1000 -1000 
-1000 -1000 -1000 -1000 -1000 -1000 -1000 -1000 -1000 
-1000 -1000 -1000 -1000 -1000 -1000 -1000 -1000 -1000 
-1000 -1000 -1000 -1000 -1000 -1000 -1000 -1000 -1000 
-1000 -1000 -1000 -1000 -1000 -1000 -1000 -1000 -1000 
-1000 -1000 -1000 -1000 -1000 -1000 -1000 -1000 -1000 
-1000 -1000 -1000 -1000 -1000 -1000 -1000 -1000 -1000 
-1000 -1000 -1000 -1000 -1000 -1000 -1000 -1000 -1000 
-1000 -1000 -1000 -1000 -1000 -1000 -1000 -1000 -1000 
-1000 -1000 -1000 -1000 -1000 -1000 -1000 -1000 -1000 
-1000 -1000 -1000 -1000 -1000 -1000 -1000 -1000 -1000 
-1000 -1000 -1000 -1000 -1000 -1000 -1000 -1000 -1000 
-1000 -1000 -1000 -1000 -1000 -1000 -1000 -1000 -1000 
-1000 -1000 -1000 -1000 -1000 -1000 -1000 -1000 -1000 
-1000 -1000 -1000 -1000 -1000 -1000 -1000 -1000 -1000 
-1000 -1000 -1000 -1000 -1000 -1000 -1000 -1000 -1000 
-1000 -1000 -1000 -1000 -1000 -1000 -1000 -1000 -1000 
-1000 -1000 -1000 -1000 -1000 -1000 -1000 -1000 -1000 
-1000 -1000 -1000 -1000 -1000 -1000 -1000 -1000 -1000 
-1000 -1000 -1000 -1000 -1000 -1000 -1000 -1000 -1000 
-1000 -1000 -1000 -1000 -1000 -1000 -1000 -1000 -1000 
-1000 -1000 -1000 -1000 -1000 -1000 -1000 -1000 -1000 
-1000 -1000 -1000 -1000 -1000 -1000 -1000 -1000 -1000 
-1000 -1000 -1000 -1000 -1000 -1000 -1000 -1000 -1000 
-1000 -1000 -1000 -1000 -1000 -1000 -1000 -1000 -1000 
-1000 -1000 -1000 -1000 -1000 -1000 -1000 -1000 -1000 
-1000 -1000 -1000 -1000 -1000 -1000 -1000 -1000 -1000 
-1000 -1000 -1000 -1000 -1000 -1000 -1000 -1000 -1000 
-1000 -1000 -1000 -1000 -1000 -1000 -1000 -1000 -1000 
-1000 -1000 -1000 -1000 -1000 -1000 -1000 -1000 -1000 
-1000 -1000 -1000 -1000 -1000 -1000 -1000 -1000 -1000 
-1000 -1000 -1000 -1000 -1000 -1000 -1000 -1000 -1000 
-1000 -1000 -1000 -1000 -1000 -1000 -1000 -1000 -1000 
-1000 -1000 -1000 -1000 -1000 -1000 -1000 -1000 -1000 
-1000 -1000 -1000 -1000 -1000 -1000 -1000 -1000 -1000 
-1000 -1000 -1000 -1000 -1000 -1000 -1000 -1000 -1000 
-1000 -1000 -1000 -1000 -1000 -1000 -1000 -1000 -1000 
-1000 -1000 -1000 -1000 -1000 -1000 -1000 -1000 -1000 
-1000 -1000 -1000 -1000 -1000 -1000 -1000 -1000 -1000 
-1000 -1000 -1000 -1000 -1000 -1000 -1000 -1000 -1000 
-1000 -1000 -1000 -1000 -1000 -1000 -1000 -1000 -1000 
-1000 -1000 -1000 -1000 -1000 -1000 -1000 -1000 -1000 
-1000 -1000 -1000 -1000 -1000 -1000 -1000 -1000 -1000 
-1000 -1000 -1000 -1000 -1000 -1000 -1000 -1000 -1000 
-1000 -1000 -1000 -1000 -1000 -1000 -1000 -1000 -1000 
-1000 -1000 -1000 -1000 -1000 -1000 -1000 -1000 -1000 
-1000 -1000 -1000 -1000 -1000 -1000 -1000 -1000 -1000 
-1000 -1000 -1000 -1000 -1000 -1000 -1000 -1000 -1000 
-1000 -1000 -1000 -1000 -1000 -1000 -1000 -1000 -1000 
-1000 -1000 -1000 -1000 -1000 -1000 -1000 -1000 -1000 
-1000 -1000 -1000 -1000 -1000 -1000 -1000 -1000 -1000 
-1000 -1000 -1000 -1000 -1000 -1000 -1000 -1000 -1000 
-1000 -1000 -1000 -1000 -1000 -1000 -1000 -1000 -1000 
-1000 -1000 -1000 -1000 -1000 -1000 -1000 -1000 -1000 
-1000 -1000 -1000 -1000 -1000 -1000 -1000 -1000 -1000 
-1000 -1000 -1000 -1000 -1000 -1000 -1000 -1000 -1000 
-1000 -1000 -1000 -1000 -1000 -1000 -1000 -1000 -1000 
-1000 -1000 -1000 -1000 -1000 -1000 -1000 -1000 -1000 
-1000 -1000 -1000 -1000 -1000 -1000 -1000 -1000 -1000 
-1000 -1000 -1000 -1000 -1000 -1000 -1000 -1000 -1000 
-1000 -1000 -1000 -1000 -1000 -1000 -1000 -1000 -1000 
-1000 -1000 -1000 -1000 -1000 -1000 -1000 -1000 -1000 
-1000 -1000 -1000 -1000 -1000 -1000 -1000 -1000 -1000 
-1000 -1000 -1000 -1000 -1000 -1000 -1000 -1000 -1000 
-1000 -1000 -1000 -1000 -1000 -1000 -1000 -1000 -1000 
-1000 -1000 -1000 -1000 -1000 -1000 -1000 -1000 -1000 
-1000 -1000 -1000 -1000 -1000 -1000 -1000 -1000 -1000 
-1000 -1000 -1000 -1000 -1000 -1000 -1000 -1000 -1000 
-1000 -1000 -1000 -1000 -1000 -1000 -1000 -1000 -1000 
-1000 -1000 -1000 -1000 -1000 -1000 -1000 -1000 -1000 
-1000 -1000 -1000 -1000 -1000 -1000 -1000 -1000 -1000 
-1000 -1000 -1000 -1000 -1000 -1000 -1000 -1000 -1000 
-1000 -1000 -1000 -1000 -1000 -1000 -1000 -1000 -1000 
-1000 -1000 -1000 -1000 -1000 -1000 -1000 -1000 -1000 
-1000 -1000 -1000 -1000 -1000 -1000 -1000 -1000 -1000 
-1000 -1000 -1000 -1000 -1000 -1000 -1000 -1000 -1000 
-1000 -1000 -1000 -1000 -1000 -1000 -1000 -1000 -1000 
-1000 -1000 -1000 -1000 -1000 -1000 -1000 -1000 -1000 
-1000 -1000 -1000 -1000 -1000 -1000 -1000 -1000 -1000 
-1000 -1000 -1000 -1000 -1000 -1000 -1000 -1000 -1000 
-1000 -1000 -1000 -1000 -1000 -1000 -1000 -1000 -1000 
-1000 -1000 -1000 -1000 -1000 -1000 -1000 -1000 -1000 
-1000 -1000 -1000 -1000 -1000 -1000 -1000 -1000 -1000 
-1000 -1000 -1000 -1000 -1000 -1000 -1000 -1000 -1000 
-1000 -1000 -1000 -1000 -1000 -1000 -1000 -1000 -1000 
-1000 -1000 -1000 -1000 -1000 -1000 -1000 -1000 -1000 
-1000 -1000 -1000 -1000 -1000 -1000 -1000 -1000 -1000 
-1000 -1000 -1000 -1000 -1000 -1000 -1000 -1000 -1000 
-1000 -1000 -1000 -1000 -1000 -1000 -1000 -1000 -1000 
-1000 -1000 -1000 -1000 -1000 -1000 -1000 -1000 -1000 
-1000 -1000 -1000 -1000 -1000 -1000 -1000 -1000 -1000 
-1000 -1000 -1000 -1000 -1000 -1000 -1000 -1000 -1000 
-1000 -1000 -1000 -1000 -1000 -1000 -1000 -1000 -1000 
-1000 -1000 -1000 -1000 -1000 -1000 -1000 -1000 -1000 
-1000 -1000 -1000 -1000 -1000 -1000 -1000 -1000 -1000 
-1000 -1000 -1000 -1000 -1000 -1000 -1000 -1000 -1000 
-1000 -1000 -1000 -1000 -1000 -1000 -1000 -1000 -1000 
-1000 -1000 -1000 -1000 -1000 -1000 -1000 -1000 -1000 
-1000 -1000 -1000 -1000 -1000 -1000 -1000 -1000 -1000 
-1000 -1000 -1000 -1000 -1000 -1000 -1000 -1000 -1000 
-1000 -1000 -1000 -1000 -1000 -1000 -1000 -1000 -1000 
-1000 -1000 -1000 -1000 -1000 -1000 -1000 -1000 -1000 
-1000 -1000 -1000 -1000 -1000 -1000 -1000 -1000 -1000 
-1000 -1000 -1000 -1000 -1000 -1000 -1000 -1000 -1000 
-1000 -1000 -1000 -1000 -1000 -1000 -1000 -1000 -1000 
-1000 -1000 -1000 -1000 -1000 -1000 -1000 -1000 -1000 
-1000 -1000 -1000 -1000 -1000 -1000 -1000 -1000 -1000 
-1000 -1000 -1000 -1000 -1000 -1000 -1000 -1000 -1000 
-1000 -1000 -1000 -1000 -1000 -1000 -1000 -1000 -1000 
-1000 -1000 -1000 -1000 -1000 -1000 -1000 -1000 -1000 
-1000 -1000 -1000 -1000 -1000 -1000 -1000 -1000 -1000 
-1000 -1000 -1000 -1000 -1000 -1000 -1000 -1000 -1000 
-1000 -1000 -1000 -1000 -1000 -1000 -1000 -1000 -1000 
-1000 -1000 -1000 -1000 -1000 -1000 -1000 -1000 -1000 