# vtk DataFile Version 3.0
vtk output
ASCII
DATASET POLYDATA
POINTS 17746 float
-82.974 -5.63858 -2.79809 -82.1657 -6.24348 -2.20259 -81.8996 -5.70544 -2.38355 
-84.0225 -5.88589 -2.93055 -83.0372 -6.43531 -2.3632 -83.9462 -6.45162 -2.5534 
-81.2797 -4.40802 -2.71433 -80.4276 -4.85091 -2.18478 -80.3381 -4.03741 -2.45188 
-82.329 -4.86229 -2.93653 -81.1506 -5.31797 -2.27541 -83.478 -4.81061 -3.3633 
-84.2865 -5.0789 -3.42728 -84.7242 -6.05633 -2.91527 -85.3235 -5.30061 -3.41193 
-86.37 -5.16952 -3.44677 -85.6454 -5.86796 -3.05513 -86.6246 -5.52843 -3.1926 
-81.3899 -3.29417 -3.16699 -80.3235 -3.20886 -2.74082 -82.472 -3.76593 -3.40171 
-83.5398 -4.01847 -3.66376 -84.5447 -4.19049 -3.86142 -85.5523 -4.32146 -3.90319 
-86.5589 -4.41273 -3.79666 -87.4214 -4.61229 -3.51256 -80.8876 -2.2378 -3.35829 
-79.8412 -2.73388 -2.69392 -79.8458 -2.07489 -2.96644 -82.0722 -2.33 -3.7501 
-82.8401 -2.71906 -3.85232 -83.8192 -3.03205 -4.0352 -84.841 -3.23256 -4.19212 
-85.6566 -3.47156 -4.21574 -86.8244 -3.28987 -4.13938 -87.5317 -3.69592 -3.84129 
-80.4157 -1.2115 -3.57327 -79.437 -1.57292 -2.96165 -79.5661 -0.699697 -3.33489 
-81.4803 -1.20236 -3.98399 -82.2635 -1.48335 -4.09142 -83.2652 -1.70184 -4.26277 
-84.2633 -1.98992 -4.39328 -85.0579 -2.34692 -4.44407 -86.3843 -2.25853 -4.47569 
-87.7438 -2.12943 -4.20399 -88.0465 -2.80319 -3.89909 -80.6243 -0.0763653 -4.05614 
-79.8092 0.346672 -3.75304 -81.5869 -0.349573 -4.31716 -82.5581 -0.541953 -4.48867 
-83.5784 -0.690692 -4.6013 -84.6992 -0.87074 -4.70094 -85.8762 -1.22847 -4.722 
-87.1518 -1.07602 -4.70249 -87.7097 -1.39871 -4.47623 -80.9259 0.973472 -4.45574 
-80.1934 1.39319 -4.13565 -81.8636 0.672436 -4.70766 -82.8868 0.431869 -4.83657 
-83.7 0.154821 -4.85351 -84.9903 0.347844 -4.94088 -86.1313 0.00531522 -4.91821 
-87.2736 -0.174905 -4.86545 -81.2771 1.95326 -4.73378 -80.7377 2.38198 -4.44508 
-82.1553 1.69137 -4.99249 -83.2256 1.47464 -5.12199 -84.4307 1.21399 -5.09894 
-85.7352 1.42001 -5.07163 -86.5206 1.08248 -5.01467 -87.3218 0.720422 -4.98167 
-81.624 2.70901 -4.84377 -81.5053 3.15765 -4.6846 -82.403 2.61592 -5.07871 
-83.4559 2.47807 -5.24042 -84.5758 2.30779 -5.25802 -85.7495 2.2311 -5.17327 
-82.5245 3.38657 -4.97547 -83.6664 3.38067 -5.18088 -84.8118 3.24786 -5.26894 
-85.7198 3.01218 -5.24789 -81.9603 -8.57733 -1.07982 -81.2466 -9.19374 -0.669629 
-80.9456 -8.61943 -0.818641 -83.0784 -8.90349 -1.17407 -82.0653 -9.48752 -0.725801 
-84.1544 -9.07848 -1.25832 -83.1009 -9.72472 -0.79829 -85.1694 -9.14851 -1.30391 
-84.1818 -9.79811 -0.884103 -85.1328 -9.67936 -0.992171 -79.9947 -7.23371 -1.10671 
-79.3329 -7.74415 -0.747852 -79.0666 -7.07618 -0.921273 -81.145 -7.7925 -1.20081 
-80.1375 -8.21564 -0.775387 -82.2802 -7.73168 -1.51373 -83.1901 -8.01781 -1.58236 
-84.2787 -8.22702 -1.67971 -85.3898 -8.37155 -1.76098 -85.8707 -9.22276 -1.27409 
-86.4612 -8.54159 -1.74397 -86.6294 -9.00914 -1.43846 -79.2248 -6.19572 -1.29137 
-78.467 -6.62272 -0.952295 -78.2559 -5.95332 -1.1458 -80.2524 -6.46514 -1.4791 
-80.8813 -6.96151 -1.46518 -81.9709 -6.96411 -1.77784 -83.3418 -7.10411 -2.04078 
-84.494 -7.31769 -2.11483 -85.6659 -7.43244 -2.22416 -86.8282 -7.5849 -2.2965 
-87.3924 -8.54841 -1.78182 -88.0135 -7.7655 -2.27825 -89.1507 -7.61982 -2.29449 
-88.3952 -8.32909 -1.91379 -89.5589 -7.95163 -1.90936 -78.4841 -5.09643 -1.46669 
-77.6744 -5.48526 -1.15965 -77.5221 -4.82207 -1.2883 -79.3053 -5.40865 -1.59187 
-80.1167 -5.61276 -1.76964 -81.1702 -6.2125 -1.87205 -84.6841 -6.56117 -2.55475 
-85.9733 -6.41022 -2.71617 -87.1573 -6.53737 -2.74328 -88.3074 -6.69632 -2.75978 
-89.3772 -6.8415 -2.62988 -90.1257 -7.06965 -2.26936 -77.8569 -4.03039 -1.53959 
-77.0159 -4.31476 -1.22892 -77.0021 -3.46486 -1.35121 -78.7394 -4.15838 -1.79521 
-79.5143 -4.68717 -1.90021 -87.4271 -5.51878 -3.12667 -88.6383 -5.47705 -3.09895 
-89.6468 -5.79918 -2.94152 -90.6921 -5.90967 -2.51934 -77.8742 -2.95994 -1.76898 
-77.0789 -2.47187 -1.55614 -78.5473 -3.42777 -1.92022 -79.4327 -3.54399 -2.23071 
-88.4622 -4.53226 -3.33303 -89.2897 -4.44043 -3.23865 -89.9299 -4.72693 -3.10021 
-90.6683 -4.97576 -2.8503 -77.9189 -1.94889 -2.04569 -77.1952 -1.65007 -1.80042 
-78.9263 -2.4546 -2.37579 -88.5114 -3.48386 -3.56509 -89.2313 -3.76373 -3.33675 
-77.7827 -0.880645 -2.31288 -76.8567 -1.10265 -1.86022 -77.0281 -0.239787 -2.19958 
-78.7057 -1.30524 -2.65942 -88.6201 -2.01615 -3.88634 -88.9071 -2.49683 -3.64835 
-78.0678 0.287346 -2.77545 -77.3485 0.835318 -2.58211 -78.8026 -0.238901 -3.03738 
-88.4593 -0.422847 -4.63259 -88.8093 -1.24524 -4.1498 -78.4731 1.38754 -3.17454 
-77.7864 1.92281 -2.94446 -79.1247 0.847759 -3.44853 -88.6626 0.824444 -4.97028 
-89.6435 -0.432335 -4.32321 -90.0769 0.475597 -4.74224 -91.3166 0.673267 -4.66885 
-91.0203 -0.0939371 -4.12155 -91.9474 0.589629 -4.39102 -79.0369 2.50318 -3.55485 
-78.3019 3.01802 -3.29846 -79.6448 1.93993 -3.83767 -86.8895 2.10275 -5.09975 
-88.0423 1.74936 -5.09381 -89.3578 1.87999 -5.19484 -90.2382 1.5686 -5.15185 
-91.3109 1.37996 -5.02007 -92.1939 1.23799 -4.74553 -79.6577 3.63759 -3.90233 
-78.8459 4.11158 -3.6413 -80.5535 3.15504 -4.25119 -87.0382 3.17892 -5.21627 
-88.2493 2.89106 -5.22709 -89.4146 2.732 -5.32387 -90.5466 2.59802 -5.40033 
-91.556 2.36197 -5.32882 -92.4438 2.11433 -5.08542 -80.2111 4.73141 -4.20369 
-79.4053 5.16301 -3.95578 -81.2066 4.37965 -4.49084 -82.3654 4.1012 -4.80001 
-83.8619 4.21699 -5.08993 -85.1186 4.15338 -5.23076 -86.3938 3.95129 -5.28091 
-87.7149 4.14236 -5.33317 -88.5492 3.90265 -5.37061 -89.6205 3.73417 -5.47944 
-90.7577 3.61338 -5.60938 -92.0073 3.49906 -5.63361 -92.7332 3.04887 -5.39252 
-80.6528 5.70896 -4.44029 -79.9504 5.96417 -4.20057 -81.6964 5.46699 -4.74374 
-82.8857 5.23431 -4.96884 -84.1531 5.11686 -5.14021 -85.4117 5.05594 -5.27367 
-86.6039 4.95863 -5.3648 -87.7668 4.897 -5.43696 -88.834 4.83187 -5.51891 
-89.8497 4.71604 -5.64108 -90.921 4.6161 -5.80155 -92.0534 4.53782 -5.91226 
-93.1047 3.7977 -5.62488 -93.2309 4.52465 -5.8614 -93.7436 4.22547 -5.63188 
-80.8064 6.40969 -4.53362 -81.3304 7.1371 -4.8087 -82.0022 6.54529 -4.96721 
-83.2934 6.26909 -5.22393 -84.5364 6.09022 -5.34725 -85.7401 5.97499 -5.43031 
-86.8842 5.88311 -5.50767 -87.9784 5.80241 -5.58622 -89.0325 5.73458 -5.6786 
-90.0569 5.66513 -5.80638 -91.0857 5.59131 -5.97413 -92.1446 5.51739 -6.12206 
-93.2131 5.44646 -6.11716 -94.1236 4.74238 -5.68358 -94.1674 5.37643 -5.85241 
-94.8085 5.1587 -5.30737 -82.6235 7.60688 -5.32484 -81.8319 8.01958 -5.12153 
-83.6671 7.27586 -5.51272 -84.874 7.0562 -5.61567 -86.0542 6.90774 -5.66048 
-87.1666 6.80025 -5.70616 -88.2198 6.71673 -5.77158 -89.2367 6.65055 -5.86193 
-90.2365 6.59606 -5.98827 -91.2391 6.54367 -6.15223 -92.2592 6.48255 -6.30423 
-93.2888 6.39708 -6.31217 -94.26 6.2592 -6.0226 -95.0321 6.00961 -5.41203 
-82.9762 8.48594 -5.56533 -82.2887 8.71841 -5.36884 -83.9898 8.25357 -5.78484 
-85.1549 8.01269 -5.88933 -86.3169 7.8382 -5.9162 -87.4114 7.71528 -5.93692 
-88.439 7.627 -5.98675 -89.4251 7.56344 -6.07303 -90.3956 7.51699 -6.19876 
-91.3703 7.47939 -6.35963 -92.3645 7.43665 -6.50781 -93.3775 7.36261 -6.51196 
-94.3592 7.21456 -6.19568 -95.2029 6.9331 -5.49179 -83.0379 9.12652 -5.66122 
-83.3697 9.85584 -5.90505 -84.1283 9.28438 -6.00126 -85.3721 8.98194 -6.14403 
-86.5268 8.77321 -6.1761 -87.6079 8.63243 -6.18806 -88.6188 8.53638 -6.22978 
-89.5817 8.47323 -6.31433 -90.5259 8.43355 -6.44133 -91.4713 8.40405 -6.60116 
-92.4364 8.37823 -6.74957 -93.4371 8.3338 -6.76128 -94.4373 8.20639 -6.43825 
-95.329 7.92474 -5.66756 -84.5022 10.4889 -6.3852 -83.5118 10.6462 -6.17759 
-85.5807 9.99826 -6.4222 -86.694 9.73112 -6.44641 -87.7578 9.5655 -6.46062 
-88.7554 9.45724 -6.503 -89.7003 9.38626 -6.58643 -90.6196 9.34938 -6.70832 
-91.5425 9.32934 -6.85828 -92.4599 9.29178 -6.99921 -93.4184 9.28837 -7.04018 
-94.4532 9.23988 -6.77448 -95.4247 8.98451 -5.99239 -84.014 11.4754 -6.61061 
-83.0428 11.1502 -6.25271 -83.074 11.9874 -6.58076 -85.0387 11.3976 -6.78989 
-85.8163 11.0052 -6.75153 -86.8315 10.7137 -6.74378 -87.8617 10.5274 -6.75633 
-88.8488 10.4052 -6.80224 -89.7873 10.3183 -6.88163 -90.6711 10.2506 -6.98004 
-91.564 10.2543 -7.09588 -92.494 10.2328 -7.20824 -93.2679 10.0611 -7.24052 
-94.289 10.3277 -7.1583 -95.4759 10.1649 -6.51955 -84.02 12.5534 -6.97574 
-83.2068 12.9833 -6.92176 -84.9639 12.2338 -7.04638 -85.9382 11.9604 -7.07247 
-86.9123 11.7015 -7.05322 -87.9117 11.5179 -7.05226 -88.893 11.3874 -7.09198 
-89.8383 11.2864 -7.16507 -90.7424 11.1853 -7.2329 -91.4662 11.017 -7.26364 
-92.4504 11.3045 -7.35043 -93.5412 11.0558 -7.3625 -94.5019 11.2944 -7.33213 
-95.1342 11.0299 -7.09255 -84.0616 13.4844 -7.22903 -83.4506 13.7582 -7.15626 
-84.9414 13.2205 -7.30895 -85.935 12.9301 -7.33805 -86.9121 12.6661 -7.32282 
-87.8823 12.5075 -7.29362 -88.8707 12.4018 -7.29701 -89.8311 12.2791 -7.35391 
-90.7696 12.175 -7.41316 -91.7737 12.0306 -7.41438 -92.725 12.3156 -7.41146 
-93.4507 12.092 -7.41726 -94.2222 11.8898 -7.41031 -84.0286 14.1684 -7.33909 
-84.3787 14.8568 -7.43303 -84.8814 14.2355 -7.46051 -85.9104 13.9273 -7.50001 
-86.919 13.634 -7.47899 -87.725 13.3226 -7.43054 -88.744 13.4922 -7.3593 
-89.7736 13.2678 -7.36934 -90.7005 13.143 -7.43966 -91.599 13.0426 -7.47319 
-92.4936 13.0552 -7.45793 -85.1401 15.0568 -7.50717 -84.9013 15.5419 -7.47288 
-85.8911 14.8668 -7.52272 -86.9041 14.6155 -7.49216 -87.9989 14.2768 -7.4024 
-88.985 14.4365 -7.26502 -89.7382 14.221 -7.26257 -90.6298 14.0621 -7.34056 
-91.5116 13.9503 -7.44578 -92.2426 13.7842 -7.48997 -85.7704 15.6729 -7.48899 
-86.7947 15.545 -7.45031 -87.8388 15.2945 -7.37224 -88.679 15.03 -7.27174 
-83.1645 -12.9662 0.176306 -82.6017 -13.5457 0.635907 -82.2048 -13.0382 0.463761 
-84.2571 -13.2404 0.0718312 -83.4621 -13.7595 0.557981 -85.2065 -13.3981 0.0447716 
-84.4756 -13.8982 0.465058 -85.2689 -13.8905 0.385698 -41.7423 -5.89937 -2.09086 
[...]
POINT_DATA 17746
SCALARS scalars float
LOOKUP_TABLE default
-1000 -1000 -1000 -1000 -1000 -1000 -1000 -1000 -1000 
-1000 -1000 -1000 -1000 -1000 -1000 -1000 -1000 -1000 
-1000 -1000 -1000 -1000 -1000 -1000 -1000 -1000 -1000 
-1000 -1000 -1000 -1000 -1000 -1000 -1000 -1000 -1000 
-1000 -1000 -1000 -1000 -1000 -1000 -1000 -1000 -1000 
-1000 -1000 -1000 -1000 -1000 -1000 -1000 -1000 -1000 
-1000 -1000 -1000 -1000 -1000 -1000 -1000 -1000 -1000 
-1000 -1000 -1000 -1000 -1000 -1000 -1000 -1000 -1000 
-1000 -1000 -1000 -1000 -1000 -1000 -1000 -1000 -1000 
-1000 -1000 -1000 -1000 -1000 -1000 -1000 -1000 -1000 
-1000 -1000 -1000 -1000 -1000 -1000 -1000 -1000 -1000 
-1000 -1000 -1000 -1000 -1000 -1000 -1000 -1000 -1000 
-1000 -1000 -1000 -1000 -1000 -1000 -1000 -1000 -1000 
-1000 -1000 -1000 -1000 -1000 -1000 -1000 -1000 -1000 
-1000 -1000 -1000 -1000 -1000 -1000 -1000 -1000 -1000 
-1000 -1000 -1000 -1000 -1000 -1000 -1000 -1000 -1000 
-1000 -1000 -1000 -1000 -1000 -1000 -1000 -1000 -1000 
-1000 -1000 -1000 -1000 -1000 -1000 -1000 -1000 -1000 
-1000 -1000 -1000 -1000 -1000 -1000 -1000 -1000 -1000 
-1000 -1000 -1000 -1000 -1000 -1000 -1000 -1000 -1000 
-1000 -1000 -1000 -1000 -1000 -1000 -1000 -1000 -1000 
-1000 -1000 -1000 -1000 -1000 -1000 -1000 -1000 -1000 
-1000 -1000 -1000 -1000 -1000 -1000 -1000 -1000 -1000 
-1000 -1000 -1000 -1000 -1000 -1000 -1000 -1000 -1000 
-1000 -1000 -1000 -1000 -1000 -1000 -1000 -1000 -1000 
-1000 -1000 -1000 -1000 -1000 -1000 -1000 -1000 -1000 
-1000 -1000 -1000 -1000 -1000 -1000 -1000 -1000 -1000 
-1000 -1000 -1000 -1000 -1000 -1000 -1000 -1000 -1000 
-1000 -1000 -1000 -1000 -1000 -1000 -1000 -1000 -1000 
-1000 -1000 -1000 -1000 -1000 -1000 -1000 -1000 -1000 
-1000 -1000 -1000 -1000 -1000 -1000 -1000 -1000 -1000 
-1000 -1000 -1000 -1000 -1000 -1000 -1000 -1000 -1000 
-1000 -1000 -1000 -1000 -1000 -1000 -1000 -1000 -1000 
-1000 -1000 -1000 -1000 -1000 -1000 -1000 -1000 -1000 
-1000 -1000 -1000 -1000 -1000 -1000 -1000 -1000 -1000 
-1000 -1000 -1000 -1000 -1000 -1000 -1000 -1000 -1000 
-1000 -1000 -1000 -1000 -1000 -1000 -1000 -1000 -1000 
-1000 -1000 -1000 -1000 -1000 -1000 -1000 -1000 -1000 
-1000 -1000 -1000 -1000 -1000 -1000 -1000 -1000 -1000 
-1000 -1000 -1000 -1000 -1000 -1000 -1000 -1000 -1000 
-1000 -1000 -1000 -1000 -1000 -1000 -1000 -1000 -1000 
-1000 -1000 -1000 -1000 -1000 -1000 -1000 -1000 -1000 
-1000 -1000 -1000 -1000 -1000 -1000 -1000 -1000 -1000 
-1000 -1000 -1000 -1000 -1000 -1000 -1000 -1000 -1000 
-1000 -1000 -1000 -1000 -1000 -1000 -1000 -1000 -1000 
-1000 -1000 -1000 -1000 -1000 -1000 -1000 -1000 -1000 
-1000 -1000 -1000 -1000 -1000 -1000 -1000 -1000 -1000 
-1000 -1000 -1000 -1000 -1000 -1000 -1000 -1000 -1000 
-1000 -1000 -1000 -1000 -1000 -1000 -1000 -1000 -1000 
-1000 -1000 -1000 -1000 -1000 -1000 -1000 -1000 -1000 
-1000 -1000 -1000 -1000 -1000 -1000 -1000 -1000 -1000 
-1000 -1000 -1000 -1000 -1000 -1000 -1000 -1000 -1000 
-1000 -1000 -1000 -1000 -1000 -1000 -1000 -1000 -1000 
-1000 -1000 -1000 -1000 -1000 -1000 -1000 -1000 -1000 
-1000 -1000 -1000 -1000 -1000 -1000 -1000 -1000 -1000 
-1000 -1000 -1000 -1000 -1000 -1000 -1000 -1000 -1000 
-1000 -1000 -1000 -1000 -1000 -1000 -1000 -1000 -1000 
-1000 -1000 -1000 -1000 -1000 -1000 -1000 -1000 -1000 
-1000 -1000 -1000 -1000 -1000 -1000 -1000 -1000 -1000 
-1000 -1000 -1000 -1000 -1000 -1000 -1000 -1000 -1000 
-1000 -1000 -1000 -1000 -1000 -1000 -1000 -1000 -1000 
-1000 -1000 -1000 -1000 -1000 -1000 -1000 -1000 -1000 
-1000 -1000 -1000 -1000 -1000 -1000 -1000 -1000 -1000 
-1000 -1000 -1000 -1000 -1000 -1000 -1000 -1000 -1000 
-1000 -1000 -1000 -1000 -1000 -1000 -1000 -1000 -1000 
-1000 -1000 -1000 -1000 -1000 -1000 -1000 -1000 -1000 
-1000 -1000 -1000 -1000 -1000 -1000 -1000 -1000 -1000 
-1000 -1000 -1000 -1000 -1000 -1000 -1000 -1000 -1000 
-1000 -1000 -1000 -1000 -1000 -1000 -1000 -1000 -1000 
-1000 -1000 -1000 -1000 -1000 -1000 -1000 -1000 -1000 
-1000 -1000 -1000 -1000 -1000 -1000 -1000 -1000 -1000 
-1000 -1000 -1000 -1000 -1000 -1000 -1000 -1000 -1000 
-1000 -1000 -1000 -1000 -1000 -1000 -1000 -1000 -1000 
-1000 -1000 -1000 -1000 -1000 -1000 -1000 -1000 -1000 
-1000 -1000 -1000 -1000 -1000 -1000 -1000 -1000 -1000 
-1000 -1000 -1000 -1000 -1000 -1000 -1000 -1000 -1000 
-1000 -1000 -1000 -1000 -1000 -1000 -1000 -1000 -1000 
-1000 -1000 -1000 -1000 -1000 -1000 -1000 -1000 -1000 
-1000 -1000 -1000 -1000 -1000 -1000 -1000 -1000 -1000 
-1000 -1000 -1000 -1000 -1000 -1000 -1000 -1000 -1000 
-1000 -1000 -1000 -1000 -1000 -1000 -1000 -1000 -1000 
-1000 -1000 -1000 -1000 -1000 -1000 -1000 -1000 -1000 
-1000 -1000 -1000 -1000 -1000 -1000 -1000 -1000 -1000 
-1000 -1000 -1000 -1000 -1000 -1000 -1000 -1000 -1000 
-1000 -1000 -1000 -1000 -1000 -1000 -1000 -1000 -1000 
-1000 -1000 -1000 -1000 -1000 -1000 -1000 -1000 -1000 
-1000 -1000 -1000 -1000 -1000 -1000 -1000 -1000 -1000 
-1000 -1000 -1000 -1000 -1000 -1000 -1000 -1000 -1000 
-1000 -1000 -1000 -1000 -1000 -1000 -1000 -1000 -1000 
-1000 -1000 -1000 -1000 -1000 -1000 -1000 -1000 -1000 
-1000 -1000 -1000 -1000 -1000 -1000 -1000 -1000 -1000 
-1000 -1000 -1000 -1000 -1000 -1000 -1000 -1000 -1000 
-1000 -1000 -1000 -1000 -1000 -1000 -1000 -1000 -1000 
-1000 -1000 -1000 -1000 -1000 -1000 -1000 -1000 -1000 
-1000 -1000 -1000 -1000 -1000 -1000 -1000 -1000 -1000 
-1000 -1000 -1000 -1000 -1000 -1000 -1000 -1000 -1000 
-1000 -1000 -1000 -1000 -1000 -1000 -1000 -1000 -1000 
-1000 -1000 -1000 -1000 -1000 -1000 -1000 -1000 -1000 
-1000 -1000 -1000 -1000 -1000 -1000 -1000 -1000 -1000 
-1000 -1000 -1000 -1000 -1000 -1000 -1000 -1000 -1000 
-1000 -1000 -1000 -1000 -1000 -1000 -1000 -1000 -1000 
-1000 -1000 -1000 -1000 -1000 -1000 -1000 -1000 -1000 
-1000 -1000 -1000 -1000 -1000 -1000 -1000 -1000 -1000 
-1000 -1000 -1000 -1000 -1000 -1000 -1000 -1000 -1000 
-1000 -1000 -1000 -1000 -1000 -1000 -1000 -1000 -1000 
-1000 -1000 -1000 -1000 -1000 -1000 -1000 -1000 -1000 
-1000 -1000 -1000 -1000 -1000 -1000 -1000 -1000 -1000 
-1000 -1000 -1000 -1000 -1000 -1000 -1000 -1000 -1000 
-1000 -1000 -1000 -1000 -1000 -1000 -1000 -1000 -1000 
-1000 -1000 -1000 -1000 -1000 -1000 -1000 -1000 -1000 
-1000 -1000 -1000 -1000 -1000 -1000 -1000 -1000 -1000 
-1000 -1000 -1000 -1000 -1000 -1000 -1000 -1000 -1000 
-1000 -1000 -1000 -1000 -1000 -1000 -1000 -1000 -1000 
-1000 -1000 -1000 -1000 -1000 -1000 -1000 -1000 -1000 
-1000 -1000 -1000 -1000 -1000 -1000 -1000 -1000 -1000 
-1000 -1000 -1000 -1000 -1000 -1000 -1000 -1000 -1000 
-1000 -1000 -1000 -1000 -1000 -1000 -1000 -1000 -1000 
-1000 -1000 -1000 -1000 -1000 -1000 -1000 -1000 -1000 
-1000 -1000 -1000 -1000 -1000 -1000 -1000 -1000 -1000 
-1000 -1000 -1000 -1000 -1000 -1000 -1000 -1000 -1000 
-1000 -1000 -1000 -1000 -1000 -1000 -1000 -1000 -1000 
-1000 -1000 -1000 -1000 -1000 -1000 -1000 -1000 -1000 
-1000 -1000 -1000 -1000 -1000 -1000 -1000 -1000 -1000 
-1000 -1000 -1000 -1000 -1000 -1000 -1000 -1000 -1000 
-1000 -1000 -1000 -1000 -1000 -1000 -1000 -1000 -1000 
-1000 -1000 -1000 -1000 -1000 -1000 -1000 -1000 -1000 
-1000 -1000 -1000 -1000 -1000 -1000 -1000 -1000 -1000 
-1000 -1000 -1000 -1000 -1000 -1000 -1000 -1000 -1000 
-1000 -1000 -1000 -1000 -1000 -1000 -1000 -1000 -1000 
-1000 -1000 -1000 -1000 -1000 -1000 -1000 -1000 -1000 
-1000 -1000 -1000 -1000 -1000 -1000 -1000 -1000 -1000 
-1000 -1000 -1000 -1000 -1000 -1000 -1000 -1000 -1000 
-1000 -1000 -1000 -1000 -1000 -1000 -1000 -1000 -1000 
-1000 -1000 -1000 -1000 -1000 -1000 -1000 -1000 -1000 
-1000 -1000 -1000 -1000 -1000 -1000 -1000 -1000 -1000 
-1000 -1000 -1000 -1000 -1000 -1000 -1000 -1000 -1000 
-1000 -1000 -1000 -1000 -1000 -1000 -1000 -1000 -1000 
-1000 -1000 -1000 -1000 -1000 -1000 -1000 -1000 -1000 
-1000 -1000 -1000 -1000 -1000 -1000 -1000 -1000 -1000 
-1000 -1000 -1000 -1000 -1000 -1000 -1000 -1000 -1000 
-1000 -1000 -1000 -1000 -1000 -1000 -1000 -1000 -1000 
-1000 -1000 -1000 -1000 -1000 -1000 -1000 -1000 -1000 
-1000 -1000 -1000 -1000 -1000 -1000 -1000 -1000 -1000 
-1000 -1000 -1000 -1000 -1000 -1000 -1000 -1000 -1000 
-1000 -1000 -1000 -1000 -1000 -1000 -1000 -1000 -1000 
-1000 -1000 -1000 -1000 -1000 -1000 -1000 -1000 -1000 
-1000 -1000 -1000 -1000 -1000 -1000 -1000 -1000 -1000 
-1000 -1000 -1000 -1000 -1000 -1000 -1000 -1000 -1000 
-1000 -1000 -1000 -1000 -1000 -1000 -1000 -1000 -1000 
-1000 -1000 -1000 -1000 -1000 -1000 -1000 -1000 -1000 
-1000 -1000 -1000 -1000 -1000 -1000 -1000 -1000 -1000 
-1000 -1000 -1000 -1000 -1000 -1000 -1000 -1000 -1000 
-1000 -1000 -1000 -1000 -1000 -1000 -1000 -1000 -1000 
-1000 -1000 -1000 -1000 -1000 -1000 -1000 -1000 -1000 
-1000 -1000 -1000 -1000 -1000 -1000 -1000 -1000 -1000 
-1000 -1000 -1000 -1000 -1000 -1000 -1000 -1000 -1000 
-1000 -1000 -1000 -1000 -1000 -1000 -1000 -1000 -1000 
-1000 -1000 -1000 -1000 -1000 -1000 -1000 -1000 -1000 
-1000 -1000 -1000 -1000 -1000 -1000 -1000 -1000 -1000 
-1000 -1000 -1000 -1000 -1000 -1000 -1000 -1000 -1000 
-1000 -1000 -1000 -1000 -1000 -1000 -1000 -1000 -1000 
-1000 -1000 -1000 -1000 -1000 -1000 -1000 -1000 -1000 
-1000 -1000 -1000 -1000 -1000 -1000 -1000 -1000 -1000 
-1000 -1000 -1000 -1000 -1000 -1000 -1000 -1000 -1000 
-1000 -1000 -1000 -1000 -1000 -1000 -1000 -1000 -1000 
-1000 -1000 -1000 -1000 -1000 -1000 -1000 -1000 -1000 
-1000 -1000 -1000 -1000 -1000 -1000 -1000 -1000 -1000 
-1000 -1000 -1000 -1000 -1000 -1000 -1000 -1000 -1000 
-1000 -1000 -1000 -1000 -1000 -1000 -1000 -1000 -1000 
-1000 -1000 -1000 -1000 -1000 -1000 -1000 -1000 -1000 
-1000 -1000 -1000 -1000 -1000 -1000 -1000 -1000 -1000 
-1000 -1000 -1000 -1000 -1000 -1000 -1000 -1000 -1000 
-1000 -1000 -1000 -1000 -1000 -1000 -1000 -1000 -1000 
-1000 -1000 -1000 -1000 -1000 -1000 -1000 -1000 -1000 
-1000 -1000 -1000 -1000 -1000 -1000 -1000 -1000 -1000 
-1000 -1000 -1000 -1000 -1000 -1000 -1000 -1000 -1000 
-1000 -1000 -1000 -1000 -1000 -1000 -1000 -1000 -1000 
-1000 -1000 -1000 -1000 -1000 -1000 -1000 -1000 -1000 
-1000 -1000 -1000 -1000 -1000 -1000 -1000 -1000 -1000 
-1000 -1000 -1000 -1000 -1000 -1000 -1000 -1000 -1000 
-1000 -1000 -1000 -1000 -1000 -1000 -1000 -1000 -1000 
-1000 -1000 -1000 -1000 -1000 -1000 -1000 -1000 -1000 
-1000 -1000 -1000 -1000 -1000 -1000 -1000 -1000 -1000 
-1000 -1000 -1000 -1000 -1000 -1000 -1000 -1000 -1000 
-1000 -1000 -1000 -1000 -1000 -1000 -1000 -1000 -1000 
-1000 -1000 -1000 -1000 -1000 -1000 -1000 -1000 -1000 
-1000 -1000 -1000 -1000 -1000 -1000 -1000 -1000 -1000 
-1000 -1000 -1000 -1000 -1000 -1000 -1000 -1000 -1000 
-1000 -1000 -1000 -1000 -1000 -1000 -1000 -1000 -1000 
-1000 -1000 -1000 -1000 -1000 -1000 -1000 -1000 -1000 
-1000 -1000 -1000 -1000 -1000 -1000 -1000 -1000 -1000 
-1000 -1000 -1000 -1000 -1000 -1000 -1000 -1000 -1000 
-1000 -1000 -1000 -1000 -1000 -1000 -1000 -1000 -1000 
-1000 -1000 -1000 -1000 -1000 -1000 -1000 -1000 -1000 
-1000 -1000 -1000 -1000 -1000 -1000 -1000 -1000 -1000 
-1000 -1000 -1000 -1000 -1000 -1000 -1000 -1000 -1000 
-1000 -1000 -1000 -1000 -1000 -1000 -1000 -1000 -1000 
-1000 -1000 -1000 -1000 -1000 -1000 -1000 -1000 -1000 
-1000 -1000 -1000 -1000 -1000 -1000 -1000 -1000 -1000 
-1000 -1000 -1000 -1000 -1000 -1000 -1000 -1000 -1000 
-1000 -1000 -1000 -1000 -1000 -1000 -1000 -1000 -1000 
-1000 -1000 -1000 -1000 -1000 -1000 -1000 -1000 -1000 
-1000 -1000 -1000 -1000 -1000 -1000 -1000 -1000 -1000 
-1000 -1000 -1000 -1000 -1000 -1000 -1000 -1000 -1000 
-1000 -1000 -1000 -1000 -1000 -1000 -1000 -1000 -1000 
-1000 -1000 -1000 -1000 -1000 -1000 -1000 -1000 -1000 
-1000 -1000 -1000 -1000 -1000 -1000 -1000 -1000 -1000 
-1000 -1000 -1000 -1000 -1000 -1000 -1000 -1000 -1000 
-1000 -1000 -1000 -1000 -1000 -1000 -1000 -1000 -1000 
-1000 -1000 -1000 -1000 -1000 -1000 -1000 -1000 -1000 
-1000 -1000 -1000 -1000 -1000 -1000 -1000 -1000 -1000 
-1000 -1000 -1000 -1000 -1000 -1000 -1000 -1000 -1000 
-1000 -1000 -1000 -1000 -1000 -1000 -1000 -1000 -1000 
-1000 -1000 -1000 -1000 -1000 -1000 -1000 -1000 -1000 
-1000 -1000 -1000 -1000 -1000 -1000 -1000 -1000 -1000 
-1000 -1000 -1000 -1000 -1000 -1000 -1000 -1000 -1000 
-1000 -1000 -1000 -1000 -1000 -1000 -1000 -1000 -1000 
-1000 -1000 -1000 -1000 -1000 -1000 -1000 -1000 -1000 
-1000 -1000 -1000 -1000 -1000 -1000 -1000 -1000 -1000 
-1000 -1000 -1000 -1000 -1000 -1000 -1000 -1000 -1000 
-1000 -1000 -1000 -1000 -1000 -1000 -1000 -1000 -1000 
-1000 -1000 -1000 -1000 -1000 -1000 -1000 -1000 -1000 
-1000 -1000 -1000 -1000 -1000 -1000 -1000 -1000 -1000 
-1000 -1000 -1000 -1000 -1000 -1000 -1000 -1000 -1000 
-1000 -1000 -1000 -1000 -1000 -1000 -1000 -1000 -1000 
-1000 -1000 -1000 -1000 -1000 -1000 -1000 -1000 -1000 
-1000 -1000 -1000 -1000 -1000 -1000 -1000 -1000 -1000 
-1000 -1000 -1000 -1000 -1000 -1000 -1000 -1000 -1000 
-1000 -1000 -1000 -1000 -1000 -1000 -1000 -1000 -1000 
-1000 -1000 -1000 -1000 -1000 -1000 -1000 -1000 -1000 
-1000 -1000 -1000 -1000 -1000 -1000 -1000 -1000 -1000 
-1000 -1000 -1000 -1000 -1000 -1000 -1000 -1000 -1000 
-1000 -1000 -1000 -1000 -1000 -1000 -1000 -1000 -1000 
-1000 -1000 -1000 -1000 -1000 -1000 -1000 -1000 -1000 
-1000 -1000 -1000 -1000 -1000 -1000 -1000 -1000 -1000 
-1000 -1000 -1000 -1000 -1000 -1000 -1000 -1000 -1000 
-1000 -1000 -1000 -1000 -1000 -1000 -1000 -1000 -1000 
-1000 -1000 -1000 -1000 -1000 -1000 -1000 -1000 -1000 
-1000 -1000 -1000 -1000 -1000 -1000 -1000 -1000 -1000 
-1000 -1000 -1000 -1000 -1000 -1000 -1000 -1000 -1000 
-1000 -1000 -1000 -1000 -1000 -1000 -1000 -1000 -1000 
-1000 -1000 -1000 -1000 -1000 -1000 -1000 -1000 -1000 
-1000 -1000 -1000 -1000 -1000 -1000 -1000 -1000 -1000 
-1000 -1000 -1000 -1000 -1000 -1000 -1000 -1000 -1000 
-1000 -1000 -1000 -1000 -1000 -1000 -1000 -1000 -1000 
-1000 -1000 -1000 -1000 -1000 -1000 -1000 -1000 -1000 
-1000 -1000 -1000 -1000 -1000 -1000 -1000 -1000 -1000 
-1000 -1000 -1000 -1000 -1000 -1000 -1000 -1000 -1000 
-1000 -1000 -1000 -1000 -1000 -1000 -1000 -1000 -1000 
-1000 -1000 -1000 -1000 -1000 -1000 -1000 -1000 -1000 
-1000 -1000 -1000 -1000 -1000 -1000 -1000 -1000 -1000 
-1000 -1000 -1000 -1000 -1000 -1000 -1000 -1000 -1000 
-1000 -1000 -1000 -1000 -1000 -1000 -1000 -1000 -1000 
-1000 -1000 -1000 -1000 -1000 -1000 -1000 -1000 -1000 
-1000 -1000 -1000 -1000 -1000 -1000 -1000 -1000 -1000 
-1000 -1000 -1000 -1000 -1000 -1000 -1000 -1000 -1000 
-1000 -1000 -1000 -1000 -1000 -1000 -1000 -1000 -1000 
-1000 -1000 -1000 -1000 -1000 -1000 -1000 -1000 -1000 
-1000 -1000 -1000 -1000 -1000 -1000 -1000 -1000 -1000 
-1000 -1000 -1000 -1000 -1000 -1000 -1000 -1000 -1000 
-1000 -1000 -1000 -1000 -1000 -1000 -1000 -1000 -1000 
-1000 -1000 -1000 -1000 -1000 -1000 -1000 -1000 -1000 
-1000 -1000 -1000 -1000 -1000 -1000 -1000 -1000 -1000 
-1000 -1000 -1000 -1000 -1000 -1000 -1000 -1000 -1000 
-1000 -1000 -1000 -1000 -1000 -1000 -1000 -1000 -1000 
-1000 -1000 -1000 -1000 -1000 -1000 -1000 -1000 -1000 
-1000 -1000 -1000 -1000 -1000 -1000 -1000 -1000 -1000 
-1000 -1000 -1000 -1000 -1000 -1000 -1000 -1000 -1000 
-1000 -1000 -1000 -1000 -1000 -1000 -1000 -1000 -1000 
-1000 -1000 -1000 -1000 -1000 -1000 -1000 -1000 -1000 
-1000 -1000 -1000 -1000 -1000 -1000 -1000 -1000 -1000 
-1000 -1000 -1000 -1000 -1000 -1000 -1000 -1000 -1000 
-1000 -1000 -1000 -1000 -1000 -1000 -1000 -1000 -1000 
-1000 -1000 -1000 -1000 -1000 -1000 -1000 -1000 -1000 
-1000 -1000 -1000 -1000 -1000 -1000 -1000 -1000 -1000 
-1000 -1000 -1000 -1000 -1000 -1000 -1000 -1000 -1000 
-1000 -1000 -1000 -1000 -1000 -1000 -1000 -1000 -1000 
-1000 -1000 -1000 -1000 -1000 -1000 -1000 -1000 -1000 
-1000 -1000 -1000 -1000 -1000 -1000 -1000 -1000 -1000 
-1000 -1000 -1000 -1000 -1000 -1000 -1000 -1000 -1000 
-1000 -1000 -1000 -1000 -1000 -1000 -1000 -1000 -1000 
-1000 -1000 -1000 -1000 -1000 -1000 -1000 -1000 -1000 
-1000 -1000 -1000 -1000 -1000 -1000 -1000 -1000 -1000 
-1000 -1000 -1000 -1000 -1000 -1000 -1000 -1000 -1000 
-1000 -1000 -1000 -1000 -1000 -1000 -1000 -1000 -1000 
-1000 -1000 -1000 -1000 -1000 -1000 -1000 -1000 -1000 
-1000 -1000 -1000 -1000 -1000 -1000 -1000 -1000 -1000 
-1000 -1000 -1000 -1000 -1000 -1000 -1000 -1000 -1000 
-1000 -1000 -1000 -1000 -1000 -1000 -1000 -1000 -1000 
-1000 -1000 -1000 -1000 -1000 -1000 -1000 -1000 -1000 
-1000 -1000 -1000 -1000 -1000 -1000 -1000 -1000 -1000 
-1000 -1000 -1000 -1000 -1000 -1000 -1000 -1000 -1000 
-1000 -1000 -1000 -1000 -1000 -1000 -1000 -1000 -1000 
-1000 -1000 -1000 -1000 -1000 -1000 -1000 -1000 -1000 
-1000 -1000 -1000 -1000 -1000 -1000 -1000 -1000 -1000 
-1000 -1000 -1000 -1000 -1000 -1000 -1000 -1000 -1000 
-1000 -1000 -1000 -1000 -1000 -1000 -1000 -1000 -1000 
-1000 -1000 -1000 -1000 -1000 -1000 -1000 -1000 -1000 
-1000 -1000 -1000 -1000 -1000 -1000 -1000 -1000 -1000 
-1000 -1000 -1000 -1000 -1000 -1000 -1000 -1000 -1000 
-1000 -1000 -1000 -1000 -1000 -1000 -1000 -1000 -1000 
-1000 -1000 -1000 -1000 -1000 -1000 -1000 -1000 -1000 
-1000 -1000 -1000 -1000 -1000 -1000 -1000 -1000 -1000 
-1000 -1000 -1000 -1000 -1000 -1000 -1000 -1000 -1000 
-1000 -1000 -1000 -1000 -1000 -1000 -1000 -1000 -1000 
-1000 -1000 -1000 -1000 -1000 -1000 -1000 -1000 -1000 
-1000 -1000 -1000 -1000 -1000 -1000 -1000 -1000 -1000 
-1000 -1000 -1000 -1000 -1000 -1000 -1000 -1000 -1000 
-1000 -1000 -1000 -1000 -1000 -1000 -1000 -1000 -1000 
-1000 -1000 -1000 -1000 -1000 -1000 -1000 -1000 -1000 
-1000 -1000 -1000 -1000 -1000 -1000 -1000 -1000 -1000 
-1000 -1000 -1000 -1000 -1000 -1000 -1000 -1000 -1000 
-1000 -1000 -1000 -1000 -1000 -1000 -1000 -1000 -1000 
-1000 -1000 -1000 -1000 -1000 -1000 -1000 -1000 -1000 
-1000 -1000 -1000 -1000 -1000 -1000 -1000 -1000 -1000 
-1000 -1000 -1000 -1000 -1000 -1000 -1000 -1000 -1000 
-1000 -1000 -1000 -1000 -1000 -1000 -1000 -1000 -1000 
-1000 -1000 -1000 -1000 -1000 -1000 -1000 -1000 -1000 
-1000 -1000 -1000 -1000 -1000 -1000 -1000 -1000 -1000 
-1000 -1000 -1000 -1000 -1000 -1000 -1000 -1000 -1000 
-1000 -1000 -1000 -1000 -1000 -1000 -1000 -1000 -1000 
-1000 -1000 -1000 -1000 -1000 -1000 -1000 -1000 -1000 
-1000 -1000 -1000 -1000 -1000 -1000 -1000 -1000 -1000 
-1000 -1000 -1000 -1000 -1000 -1000 -1000 -1000 -1000 
-1000 -1000 -1000 -1000 -1000 -1000 -1000 -1000 -1000 
-1000 -1000 -1000 -1000 -1000 -1000 -1000 -1000 -1000 
-1000 -1000 -1000 -1000 -1000 -1000 -1000 -1000 -1000 
-1000 -1000 -1000 -1000 -1000 -1000 -1000 -1000 -1000 
-1000 -1000 -1000 -1000 -1000 -1000 -1000 -1000 -1000 
-1000 -1000 -1000 -1000 -1000 -1000 -1000 -1000 -1000 
-1000 -1000 -1000 -1000 -1000 -1000 -1000 -1000 -1000 
-1000 -1000 -1000 -1000 -1000 -1000 -1000 -1000 -1000 
-1000 -1000 -1000 -1000 -1000 -1000 -1000 -1000 -1000 
-1000 -1000 -1000 -1000 -1000 -1000 -1000 -1000 -1000 
-1000 -1000 -1000 -1000 -1000 -1000 -1000 -1000 -1000 
-1000 -1000 -1000 -1000 -1000 -1000 -1000 -1000 -1000 
-1000 -1000 -1000 -1000 -1000 -1000 -1000 -1000 -1000 
-1000 -1000 -1000 -1000 -1000 -1000 -1000 -1000 -1000 
-1000 -1000 -1000 -1000 -1000 -1000 -1000 -1000 -1000 
-1000 -1000 -1000 -1000 -1000 -1000 -1000 -1000 -1000 
-1000 -1000 -1000 -1000 -1000 -1000 -1000 -1000 -1000 
-1000 -1000 -1000 -1000 -1000 -1000 -1000 -1000 -1000 
-1000 -1000 -1000 -1000 -1000 -1000 -1000 -1000 -1000 
-1000 -1000 -1000 -1000 -1000 -1000 -1000 -1000 -1000 
-1000 -1000 -1000 -1000 -1000 -1000 -1000 -1000 -1000 
-1000 -1000 -1000 -1000 -1000 -1000 -1000 -1000 -1000 
-1000 -1000 -1000 -1000 -1000 -1000 -1000 -1000 -1000 
-1000 -1000 -1000 -1000 -1000 -1000 -1000 -1000 -1000 
-1000 -1000 -1000 -1000 -1000 -1000 -1000 -1000 -1000 
-1000 -1000 -1000 -1000 -1000 -1000 -1000 -1000 -1000 
-1000 -1000 -1000 -1000 -1000 -1000 -1000 -1000 -1000 
-1000 -1000 -1000 -1000 -1000 -1000 -1000 -1000 -1000 
-1000 -1000 -1000 -1000 -1000 -1000 -1000 -1000 -1000 
-1000 -1000 -1000 -1000 -1000 -1000 -1000 -1000 -1000 
-1000 -1000 -1000 -1000 -1000 -1000 -1000 -1000 -1000 
-1000 -1000 -1000 -1000 -1000 -1000 -1000 -1000 -1000 