# vtk DataFile Version 3.0
vtk output
ASCII
DATASET POLYDATA
POINTS 13638 float
-85.693 -9.90903 -52.9874 -85.836 -9.76762 -53.019 -87.6428 -5.64466 -45.5102 
-85.8382 -9.76478 -53.0196 -86.3974 -9.13459 -53.155 -88.5711 -4.75284 -45.7196 
-86.7059 -8.68658 -53.2453 -87.3306 -7.4578 -53.478 -87.3636 -7.30575 -53.5038 
-90.0935 -2.55559 -46.3807 -87.0981 -7.99041 -53.3797 -73.9883 -12.5677 -51.7885 
-74.2106 -12.6414 -51.792 -70.8551 -8.17171 -44.1074 -74.7169 -12.705 -51.8162 
-74.8777 -12.7195 -51.8247 -75.5669 -12.7573 -51.8651 -72.5569 -8.6566 -43.9301 
-75.9611 -12.81 -51.8834 -73.2169 -8.87468 -43.9493 -76.154 -12.8408 -51.8916 
-76.7827 -12.9749 -51.913 -77.0067 -13.004 -51.9235 -74.1993 -9.27107 -43.8446 
-77.6469 -13.0924 -51.9528 -75.2686 -9.6305 -43.7042 -78.3585 -13.1126 -51.9974 
-78.6197 -13.112 -52.0151 -76.5539 -9.82841 -43.822 -76.2463 -9.91069 -43.4607 
-78.0856 -13.1037 -51.9805 -77.119 -9.98904 -43.5659 -78.8768 -13.1126 -52.0322 
-80.426 -12.9676 -52.1588 -78.8525 -9.89235 -43.9092 -79.9493 -13.0505 -52.1139 
-77.9972 -9.97447 -43.7288 -79.5906 -13.0716 -52.0865 -79.1797 -13.1078 -52.0533 
-78.9596 -10.0047 -43.4729 -80.4891 -12.9552 -52.165 -80.7082 -12.8811 -52.1912 
-81.1222 -12.7432 -52.2404 -81.2374 -12.7071 -52.2537 -80.4847 -9.7549 -43.6333 
-82.2004 -12.3263 -52.3775 -82.3956 -12.2464 -52.403 -82.3692 -9.07341 -44.2828 
-81.6004 -9.43342 -43.9208 -82.0972 -12.3614 -52.3651 -82.4205 -9.20573 -43.8505 
-82.7779 -12.0855 -52.4537 -83.4088 -11.7627 -52.5462 -83.4203 -11.7571 -52.5478 
-83.4244 -11.7545 -52.5485 -83.9091 -8.4164 -44.156 -84.312 -11.1552 -52.7012 
-84.3326 -11.1383 -52.7052 -85.3312 -7.44973 -44.4816 -85.116 -10.4773 -52.8604 
-85.1252 -10.4683 -52.8624 -86.6575 -6.39604 -44.8131 -87.8619 -5.34246 -45.1311 
-88.9212 -4.30579 -45.4506 -86.8999 -8.40076 -53.3027 -86.9521 -8.32538 -53.3179 
-89.8137 -3.21977 -45.7408 -90.4507 -1.37743 -46.6523 -90.4382 -2.11113 -45.9718 
-87.4949 -6.57566 -53.626 -87.4951 -5.595 -53.7783 -87.4017 -4.91772 -53.8772 
-90.5333 -0.263828 -46.9569 -87.5009 -6.10567 -53.6994 -86.8508 -3.26081 -54.0975 
-86.7966 -3.10827 -54.1175 -89.3435 2.02506 -48.4594 -87.1597 -4.0418 -53.997 
-87.1364 -3.97789 -54.0053 -89.8799 1.30783 -48.0248 -87.253 -4.36306 -53.9533 
-70.4814 -10.4393 -51.8835 -70.7934 -10.5595 -51.8858 -66.9024 -5.50602 -45.4075 
-70.8898 -10.607 -51.8849 -71.7477 -11.1088 -51.8646 -71.8608 -11.2025 -51.8577 
-68.0019 -6.17707 -44.9451 -71.5883 -10.9962 -51.8714 -72.3804 -11.6036 -51.8303 
-72.7158 -11.8626 -51.8126 -68.9669 -6.91442 -44.4028 -73.0228 -12.0858 -51.7985 
-73.5757 -12.4059 -51.786 -69.9562 -7.65228 -43.928 -71.2591 -8.35553 -43.8462 
-70.9518 -8.26143 -43.6357 -73.7297 -12.4849 -51.784 -71.7528 -8.60214 -43.4748 
-74.7978 -12.7161 -51.8199 -73.1799 -8.92466 -43.5641 -72.6224 -8.86448 -43.3552 
-74.8299 -12.7193 -51.8215 -74.8137 -12.7182 -51.8206 -73.4998 -9.15 -43.153 
-74.0826 -9.31927 -43.2758 -75.6926 -9.87219 -43.2768 -75.1121 -9.71406 -43.2041 
-76.1681 -10.0651 -42.8619 -77.8556 -10.1195 -43.2973 -77.1214 -10.156 -43.0549 
-78.1465 -10.234 -42.8785 -79.4849 -10.1427 -42.89 -80.62 -9.93127 -43.163 
-81.2948 -9.67137 -43.5252 -81.4982 -9.71745 -43.1813 -82.7553 -9.14913 -43.387 
-84.1617 -8.2897 -43.6903 -85.5351 -7.27458 -44.0235 -86.8495 -6.18095 -44.377 
-88.0749 -5.06949 -44.7292 -89.1803 -3.9623 -45.0484 -90.1553 -2.78564 -45.294 
-90.7858 -0.968655 -46.1219 -90.7041 -1.82902 -45.6158 -90.3907 0.648294 -47.2654 
-90.7039 0.0358974 -46.6572 -87.3848 -4.81197 -53.8925 -88.8067 2.5702 -48.8931 
-89.3898 2.23303 -48.1182 -86.5841 -2.53183 -54.1928 -90.0629 1.45701 -47.5038 
-86.4025 -1.84085 -54.2879 -86.2683 -1.25703 -54.3695 -88.4225 3.00791 -49.1326 
-86.5063 -2.24681 -54.2318 -86.0874 -0.406555 -54.4894 -86.0618 -0.281759 -54.5071 
-87.545 3.57243 -50.2045 -86.1483 -0.7201 -54.4448 -68.4604 -9.34272 -51.9181 
-68.5474 -9.39792 -51.9154 -64.6919 -4.42584 -46.5159 -68.2387 -9.17645 -51.929 
-69.068 -9.74353 -51.8967 -69.3843 -9.89938 -51.8937 -65.3948 -4.80323 -45.8976 
-69.7455 -10.1062 -51.8858 -70.2817 -10.3556 -51.8831 -66.1731 -5.22848 -45.3104 
-67.5113 -5.87671 -44.9171 -67.0419 -5.70137 -44.7971 -70.3257 -10.3779 -51.8826 
-68.1556 -6.27719 -44.4459 -67.9424 -6.23652 -44.1974 -68.5749 -6.59497 -43.9222 
-71.1877 -10.751 -51.8826 -68.8013 -6.70581 -44.1208 -69.8355 -7.45516 -43.486 
-70.9247 -8.2203 -43.0622 -72.2716 -8.87884 -43.0653 -71.937 -8.7995 -42.8392 
-72.7892 -9.13918 -42.685 -74.1527 -9.47006 -42.7609 -73.4937 -9.30576 -42.7179 
-74.3907 -9.7118 -42.1485 -75.2934 -9.89786 -42.4856 -76.4685 -10.2483 -42.304 
-77.2276 -10.303 -42.5171 -78.2597 -10.3942 -42.2227 -79.5165 -10.3396 -42.2325 
-80.4813 -10.0861 -42.6998 -81.5213 -9.82415 -42.5982 -83.0019 -9.09379 -42.8668 
-84.4054 -8.20442 -43.1623 -85.7875 -7.16479 -43.5178 -87.1028 -6.0296 -43.915 
-88.314 -4.88143 -44.2838 -89.3912 -3.77243 -44.5891 -90.1686 -2.86977 -44.7516 
-90.8994 -1.38472 -45.5821 -90.7308 -1.90939 -45.1598 -90.5957 0.661152 -46.8357 
-90.8566 0.0460777 -46.238 -90.9951 -0.818044 -45.529 -88.9406 2.65697 -48.527 
-89.3245 2.46167 -47.9736 -89.9548 1.91409 -47.2248 -90.5848 0.986705 -46.6195 
-87.962 3.3873 -49.5119 -88.4285 3.2119 -48.8023 -86.2329 -1.1073 -54.3904 
-88.9003 2.84892 -48.35 -87.1885 3.83207 -50.4323 -87.627 3.6851 -49.6436 
-85.9527 0.270561 -54.5855 -85.6948 1.52756 -54.7634 -86.6022 4.2864 -51.2882 
-85.8211 0.933598 -54.6796 -86.8758 4.09325 -50.6252 -85.6854 1.5747 -54.7701 
-85.8698 0.675108 -54.6428 -85.5261 2.21863 -54.8594 -85.4565 2.44814 -54.8903 
-86.2688 4.57911 -51.5572 -85.6808 1.59398 -54.7728 -66.7964 -8.04534 -52.0078 
-66.9972 -8.20137 -51.9971 -63.4756 -3.67834 -47.659 -66.2994 -7.66759 -52.0331 
-67.3442 -8.47465 -51.9779 -67.7665 -8.81017 -51.9542 -64.0701 -3.93584 -46.9737 
-67.8944 -8.91221 -51.9469 -64.6916 -4.25833 -46.2672 -65.3583 -4.64625 -45.582 
-66.0879 -5.09349 -44.9393 -66.9033 -5.60854 -44.3379 -67.803 -6.1929 -43.7719 
-69.2838 -7.08292 -43.4341 -68.7837 -6.83089 -43.2884 -70.0482 -7.60394 -42.9394 
-69.7973 -7.51072 -42.7069 -70.5034 -7.93842 -42.4243 -70.9183 -8.17054 -42.5226 
-71.9865 -8.85096 -42.1897 -73.4965 -9.46219 -42.239 -72.89 -9.29929 -42.1049 
-73.8698 -9.69199 -41.6917 -74.8325 -10.0179 -41.4241 -75.5129 -10.1271 -41.7 
-77.179 -10.4076 -42.045 -76.4164 -10.3237 -41.8355 -77.4706 -10.5212 -41.5737 
-78.7542 -10.553 -41.5369 -79.7922 -10.4311 -41.823 -80.3777 -10.2402 -42.2301 
-80.6677 -10.2552 -41.8485 -81.8976 -9.78326 -42.0243 -83.2828 -9.08574 -42.2628 
-84.7519 -8.23517 -42.503 -86.2258 -7.07108 -43.0299 -87.4939 -5.91602 -43.4517 
-88.6611 -4.74543 -43.8256 -89.6943 -3.61612 -44.1347 -90.5816 -2.43237 -44.4189 
-90.9959 -1.396 -44.8887 -90.9528 0.303815 -45.8078 -91.161 -0.486438 -45.027 
-89.4276 2.52933 -47.5416 -90.0409 2.09807 -46.6143 -90.6048 1.2961 -46.1959 
-88.0894 3.46423 -49.104 -88.4101 3.34815 -48.5819 -88.8742 3.03303 -47.9777 
-87.18 3.93014 -49.9413 -87.5916 3.8488 -49.173 -88.0676 3.60084 -48.845 
-86.5889 4.38238 -50.8068 -86.8674 4.17838 -50.1158 -85.8634 4.86301 -51.9135 
-86.2219 4.67488 -51.1017 -85.3149 2.87747 -54.9475 -84.8017 4.69369 -55.195 
-85.0449 5.52508 -53.1772 -84.8594 4.14772 -55.1141 -85.1289 5.33551 -52.6326 
-84.794 4.77354 -55.2069 -85.0673 3.53994 -55.0337 -84.9156 3.97015 -55.0903 
-85.448 5.13554 -52.2924 -85.1784 3.23836 -54.9944 -84.7958 4.80234 -55.2115 
-84.8511 5.43892 -55.3141 -85.1274 5.85149 -53.3853 -84.9018 5.99172 -55.4033 
-84.9225 6.60271 -55.4996 -85.2467 6.22114 -53.3064 -84.8531 5.46523 -55.3183 
-84.8927 7.27528 -55.602 -84.8079 7.74324 -55.669 -85.5372 7.16616 -53.4847 
-84.9229 6.65167 -55.5072 -84.2043 9.32503 -55.8741 -84.084 9.58495 -55.9063 
-85.2699 8.81112 -54.0864 -84.5281 8.63353 -55.7884 -84.4997 8.69237 -55.7957 
-85.4101 8.25021 -53.9597 -84.5931 8.44918 -55.7642 -82.6702 11.9297 -56.1755 
-82.6289 11.9968 -56.1831 -84.305 10.9583 -54.8095 -82.8548 11.6627 -56.1464 
-80.9262 14.476 -56.4537 -80.9183 14.4878 -56.455 -83.415 13.2009 -55.0793 
-80.9586 14.4324 -56.4492 -64.5764 -6.42878 -52.1097 -64.7045 -6.51864 -52.1044 
-61.7296 -3.01647 -49.2044 -64.191 -6.15628 -52.1262 -65.1304 -6.82105 -52.086 
-65.4583 -7.05384 -52.0719 -62.3173 -3.18321 -48.7157 -65.6887 -7.22015 -52.0616 
-66.2267 -7.61269 -52.0367 -62.904 -3.35529 -48.1366 -66.2474 -7.62816 -52.0357 
-63.4922 -3.55196 -47.4803 -64.0884 -3.79723 -46.7695 -64.706 -4.10904 -46.0317 
-65.3544 -4.49033 -45.3047 -66.0367 -4.9252 -44.6382 -66.7918 -5.42762 -43.9965 
-67.6808 -6.04446 -43.347 -68.663 -6.74777 -42.7596 -69.6722 -7.47235 -42.2444 
-71.1344 -8.34164 -41.9854 -70.7003 -8.1424 -41.8488 -71.5571 -8.6561 -41.4681 
-55.8547 0.366374 -52.5792 -55.9866 0.168489 -52.5573 -55.8426 0.575029 -47.2241 
-56.0632 0.0692164 -52.547 -56.2536 -0.158257 -52.5245 -72.0226 -8.88918 -41.5757 
-73.2031 -9.52626 -41.3328 -74.3401 -10.0101 -41.006 -54.9325 2.28797 -52.8156 
-55.0013 2.10997 -52.7926 -55.2792 2.01856 -46.9689 -55.0348 2.01967 -52.7808 
-55.3407 1.26766 -52.6846 -55.5023 1.36618 -47.0816 -55.3611 1.21825 -52.6783 
-55.4174 1.11051 -52.6653 -75.2417 -10.3524 -40.7075 -75.6145 -10.2984 -41.1608 
-76.0129 -10.5291 -40.7419 -54.0731 4.62309 -53.1205 -54.2324 4.04316 -53.0411 
-54.4926 3.78321 -46.4489 -54.5037 3.34591 -52.9511 -54.5336 3.27075 -52.9414 
-54.9438 2.99369 -46.8965 -54.5534 3.233 -52.9369 -54.608 3.10814 -52.9212 
-76.4864 -10.4878 -41.171 -77.6483 -10.7215 -40.7971 -53.9946 5.18986 -53.2032 
-54.2728 4.74264 -46.5094 -53.9783 5.5061 -53.2512 -54.1704 5.43422 -46.5431 
-53.9561 5.81724 -53.298 -54.0709 4.63457 -53.1221 -78.839 -10.7401 -40.8002 
-53.8965 6.4817 -53.3972 -53.8886 6.35308 -46.2409 -53.8485 6.90157 -53.4592 
-53.9563 6.88546 -46.7713 -53.8295 7.08972 -53.4871 -53.9164 6.21561 -53.3572 
-79.728 -10.5412 -41.3142 -80.7375 -10.3628 -41.1409 -53.8189 7.66127 -53.5752 
[...]
POINT_DATA 13638
SCALARS scalars float
LOOKUP_TABLE default
-1000 -1000 -1000 -1000 -1000 -1000 -1000 -1000 -1000 
-1000 -1000 -1000 -1000 -1000 -1000 -1000 -1000 -1000 
-1000 -1000 -1000 -1000 -1000 -1000 -1000 -1000 -1000 
-1000 -1000 -1000 -1000 -1000 -1000 -1000 -1000 -1000 
-1000 -1000 -1000 -1000 -1000 -1000 -1000 -1000 -1000 
-1000 -1000 -1000 -1000 -1000 -1000 -1000 -1000 -1000 
-1000 -1000 -1000 -1000 -1000 -1000 -1000 -1000 -1000 
-1000 -1000 -1000 -1000 -1000 -1000 -1000 -1000 -1000 
-1000 -1000 -1000 -1000 -1000 -1000 -1000 -1000 -1000 
-1000 -1000 -1000 -1000 -1000 -1000 -1000 -1000 -1000 
-1000 -1000 -1000 -1000 -1000 -1000 -1000 -1000 -1000 
-1000 -1000 -1000 -1000 -1000 -1000 -1000 -1000 -1000 
-1000 -1000 -1000 -1000 -1000 -1000 -1000 -1000 -1000 
-1000 -1000 -1000 -1000 -1000 -1000 -1000 -1000 -1000 
-1000 -1000 -1000 -1000 -1000 -1000 -1000 -1000 -1000 
-1000 -1000 -1000 -1000 -1000 -1000 -1000 -1000 -1000 
-1000 -1000 -1000 -1000 -1000 -1000 -1000 -1000 -1000 
-1000 -1000 -1000 -1000 -1000 -1000 -1000 -1000 -1000 
-1000 -1000 -1000 -1000 -1000 -1000 -1000 -1000 -1000 
-1000 -1000 -1000 -1000 -1000 -1000 -1000 -1000 -1000 
-1000 -1000 -1000 -1000 -1000 -1000 -1000 -1000 -1000 
-1000 -1000 -1000 -1000 -1000 -1000 -1000 -1000 -1000 
-1000 -1000 -1000 -1000 -1000 -1000 -1000 -1000 -1000 
-1000 -1000 -1000 -1000 -1000 -1000 -1000 -1000 -1000 
-1000 -1000 -1000 -1000 -1000 -1000 -1000 -1000 -1000 
-1000 -1000 -1000 -1000 -1000 -1000 -1000 -1000 -1000 
-1000 -1000 -1000 -1000 -1000 -1000 -1000 -1000 -1000 
-1000 -1000 -1000 -1000 -1000 -1000 -1000 -1000 -1000 
-1000 -1000 -1000 -1000 -1000 -1000 -1000 -1000 -1000 
-1000 -1000 -1000 -1000 -1000 -1000 -1000 -1000 -1000 
-1000 -1000 -1000 -1000 -1000 -1000 -1000 -1000 -1000 
-1000 -1000 -1000 -1000 -1000 -1000 -1000 -1000 -1000 
-1000 -1000 -1000 -1000 -1000 -1000 -1000 -1000 -1000 
-1000 -1000 -1000 -1000 -1000 -1000 -1000 -1000 -1000 
-1000 -1000 -1000 -1000 -1000 -1000 -1000 -1000 -1000 
-1000 -1000 -1000 -1000 -1000 -1000 -1000 -1000 -1000 
-1000 -1000 -1000 -1000 -1000 -1000 -1000 -1000 -1000 
-1000 -1000 -1000 -1000 -1000 -1000 -1000 -1000 -1000 
-1000 -1000 -1000 -1000 -1000 -1000 -1000 -1000 -1000 
-1000 -1000 -1000 -1000 -1000 -1000 -1000 -1000 -1000 
-1000 -1000 -1000 -1000 -1000 -1000 -1000 -1000 -1000 
-1000 -1000 -1000 -1000 -1000 -1000 -1000 -1000 -1000 
-1000 -1000 -1000 -1000 -1000 -1000 -1000 -1000 -1000 
-1000 -1000 -1000 -1000 -1000 -1000 -1000 -1000 -1000 
-1000 -1000 -1000 -1000 -1000 -1000 -1000 -1000 -1000 
-1000 -1000 -1000 -1000 -1000 -1000 -1000 -1000 -1000 
-1000 -1000 -1000 -1000 -1000 -1000 -1000 -1000 -1000 
-1000 -1000 -1000 -1000 -1000 -1000 -1000 -1000 -1000 
-1000 -1000 -1000 -1000 -1000 -1000 -1000 -1000 -1000 
-1000 -1000 -1000 -1000 -1000 -1000 -1000 -1000 -1000 
-1000 -1000 -1000 -1000 -1000 -1000 -1000 -1000 -1000 
-1000 -1000 -1000 -1000 -1000 -1000 -1000 -1000 -1000 
-1000 -1000 -1000 -1000 -1000 -1000 -1000 -1000 -1000 
-1000 -1000 -1000 -1000 -1000 -1000 -1000 -1000 -1000 
-1000 -1000 -1000 -1000 -1000 -1000 -1000 -1000 -1000 
-1000 -1000 -1000 -1000 -1000 -1000 -1000 -1000 -1000 
-1000 -1000 -1000 -1000 -1000 -1000 -1000 -1000 -1000 
-1000 -1000 -1000 -1000 -1000 -1000 -1000 -1000 -1000 
-1000 -1000 -1000 -1000 -1000 -1000 -1000 -1000 -1000 
-1000 -1000 -1000 -1000 -1000 -1000 -1000 -1000 -1000 
-1000 -1000 -1000 -1000 -1000 -1000 -1000 -1000 -1000 
-1000 -1000 -1000 -1000 -1000 -1000 -1000 -1000 -1000 
-1000 -1000 -1000 -1000 -1000 -1000 -1000 -1000 -1000 
-1000 -1000 -1000 -1000 -1000 -1000 -1000 -1000 -1000 
-1000 -1000 -1000 -1000 -1000 -1000 -1000 -1000 -1000 
-1000 -1000 -1000 -1000 -1000 -1000 -1000 -1000 -1000 
-1000 -1000 -1000 -1000 -1000 -1000 -1000 -1000 -1000 
-1000 -1000 -1000 -1000 -1000 -1000 -1000 -1000 -1000 
-1000 -1000 -1000 -1000 -1000 -1000 -1000 -1000 -1000 
-1000 -1000 -1000 -1000 -1000 -1000 -1000 -1000 -1000 
-1000 -1000 -1000 -1000 -1000 -1000 -1000 -1000 -1000 
-1000 -1000 -1000 -1000 -1000 -1000 -1000 -1000 -1000 
-1000 -1000 -1000 -1000 -1000 -1000 -1000 -1000 -1000 
-1000 -1000 -1000 -1000 -1000 -1000 -1000 -1000 -1000 
-1000 -1000 -1000 -1000 -1000 -1000 -1000 -1000 -1000 
-1000 -1000 -1000 -1000 -1000 -1000 -1000 -1000 -1000 
-1000 -1000 -1000 -1000 -1000 -1000 -1000 -1000 -1000 
-1000 -1000 -1000 -1000 -1000 -1000 -1000 -1000 -1000 
-1000 -1000 -1000 -1000 -1000 -1000 -1000 -1000 -1000 
-1000 -1000 -1000 -1000 -1000 -1000 -1000 -1000 -1000 
-1000 -1000 -1000 -1000 -1000 -1000 -1000 -1000 -1000 
-1000 -1000 -1000 -1000 -1000 -1000 -1000 -1000 -1000 
-1000 -1000 -1000 -1000 -1000 -1000 -1000 -1000 -1000 
-1000 -1000 -1000 -1000 -1000 -1000 -1000 -1000 -1000 
-1000 -1000 -1000 -1000 -1000 -1000 -1000 -1000 -1000 
-1000 -1000 -1000 -1000 -1000 -1000 -1000 -1000 -1000 
-1000 -1000 -1000 -1000 -1000 -1000 -1000 -1000 -1000 
-1000 -1000 -1000 -1000 -1000 -1000 -1000 -1000 -1000 
-1000 -1000 -1000 -1000 -1000 -1000 -1000 -1000 -1000 
-1000 -1000 -1000 -1000 -1000 -1000 -1000 -1000 -1000 
-1000 -1000 -1000 -1000 -1000 -1000 -1000 -1000 -1000 
-1000 -1000 -1000 -1000 -1000 -1000 -1000 -1000 -1000 
-1000 -1000 -1000 -1000 -1000 -1000 -1000 -1000 -1000 
-1000 -1000 -1000 -1000 -1000 -1000 -1000 -1000 -1000 
-1000 -1000 -1000 -1000 -1000 -1000 -1000 -1000 -1000 
-1000 -1000 -1000 -1000 -1000 -1000 -1000 -1000 -1000 
-1000 -1000 -1000 -1000 -1000 -1000 -1000 -1000 -1000 
-1000 -1000 -1000 -1000 -1000 -1000 -1000 -1000 -1000 
-1000 -1000 -1000 -1000 -1000 -1000 -1000 -1000 -1000 
-1000 -1000 -1000 -1000 -1000 -1000 -1000 -1000 -1000 
-1000 -1000 -1000 -1000 -1000 -1000 -1000 -1000 -1000 
-1000 -1000 -1000 -1000 -1000 -1000 -1000 -1000 -1000 
-1000 -1000 -1000 -1000 -1000 -1000 -1000 -1000 -1000 
-1000 -1000 -1000 -1000 -1000 -1000 -1000 -1000 -1000 
-1000 -1000 -1000 -1000 -1000 -1000 -1000 -1000 -1000 
-1000 -1000 -1000 -1000 -1000 -1000 -1000 -1000 -1000 
-1000 -1000 -1000 -1000 -1000 -1000 -1000 -1000 -1000 
-1000 -1000 -1000 -1000 -1000 -1000 -1000 -1000 -1000 
-1000 -1000 -1000 -1000 -1000 -1000 -1000 -1000 -1000 
-1000 -1000 -1000 -1000 -1000 -1000 -1000 -1000 -1000 
-1000 -1000 -1000 -1000 -1000 -1000 -1000 -1000 -1000 
-1000 -1000 -1000 -1000 -1000 -1000 -1000 -1000 -1000 
-1000 -1000 -1000 -1000 -1000 -1000 -1000 -1000 -1000 
-1000 -1000 -1000 -1000 -1000 -1000 -1000 -1000 -1000 
-1000 -1000 -1000 -1000 -1000 -1000 -1000 -1000 -1000 
-1000 -1000 -1000 -1000 -1000 -1000 -1000 -1000 -1000 
-1000 -1000 -1000 -1000 -1000 -1000 -1000 -1000 -1000 
-1000 -1000 -1000 -1000 -1000 -1000 -1000 -1000 -1000 
-1000 -1000 -1000 -1000 -1000 -1000 -1000 -1000 -1000 
-1000 -1000 -1000 -1000 -1000 -1000 -1000 -1000 -1000 
-1000 -1000 -1000 -1000 -1000 -1000 -1000 -1000 -1000 
-1000 -1000 -1000 -1000 -1000 -1000 -1000 -1000 -1000 
-1000 -1000 -1000 -1000 -1000 -1000 -1000 -1000 -1000 
-1000 -1000 -1000 -1000 -1000 -1000 -1000 -1000 -1000 
-1000 -1000 -1000 -1000 -1000 -1000 -1000 -1000 -1000 
-1000 -1000 -1000 -1000 -1000 -1000 -1000 -1000 -1000 
-1000 -1000 -1000 -1000 -1000 -1000 -1000 -1000 -1000 
-1000 -1000 -1000 -1000 -1000 -1000 -1000 -1000 -1000 
-1000 -1000 -1000 -1000 -1000 -1000 -1000 -1000 -1000 
-1000 -1000 -1000 -1000 -1000 -1000 -1000 -1000 -1000 
-1000 -1000 -1000 -1000 -1000 -1000 -1000 -1000 -1000 
-1000 -1000 -1000 -1000 -1000 -1000 -1000 -1000 -1000 
-1000 -1000 -1000 -1000 -1000 -1000 -1000 -1000 -1000 
-1000 -1000 -1000 -1000 -1000 -1000 -1000 -1000 -1000 
-1000 -1000 -1000 -1000 -1000 -1000 -1000 -1000 -1000 
-1000 -1000 -1000 -1000 -1000 -1000 -1000 -1000 -1000 
-1000 -1000 -1000 -1000 -1000 -1000 -1000 -1000 -1000 
-1000 -1000 -1000 -1000 -1000 -1000 -1000 -1000 -1000 
-1000 -1000 -1000 -1000 -1000 -1000 -1000 -1000 -1000 
-1000 -1000 -1000 -1000 -1000 -1000 -1000 -1000 -1000 
-1000 -1000 -1000 -1000 -1000 -1000 -1000 -1000 -1000 
-1000 -1000 -1000 -1000 -1000 -1000 -1000 -1000 -1000 
-1000 -1000 -1000 -1000 -1000 -1000 -1000 -1000 -1000 
-1000 -1000 -1000 -1000 -1000 -1000 -1000 -1000 -1000 
-1000 -1000 -1000 -1000 -1000 -1000 -1000 -1000 -1000 
-1000 -1000 -1000 -1000 -1000 -1000 -1000 -1000 -1000 
-1000 -1000 -1000 -1000 -1000 -1000 -1000 -1000 -1000 
-1000 -1000 -1000 -1000 -1000 -1000 -1000 -1000 -1000 
-1000 -1000 -1000 -1000 -1000 -1000 -1000 -1000 -1000 
-1000 -1000 -1000 -1000 -1000 -1000 -1000 -1000 -1000 
-1000 -1000 -1000 -1000 -1000 -1000 -1000 -1000 -1000 
-1000 -1000 -1000 -1000 -1000 -1000 -1000 -1000 -1000 
-1000 -1000 -1000 -1000 -1000 -1000 -1000 -1000 -1000 
-1000 -1000 -1000 -1000 -1000 -1000 -1000 -1000 -1000 
-1000 -1000 -1000 -1000 -1000 -1000 -1000 -1000 -1000 
-1000 -1000 -1000 -1000 -1000 -1000 -1000 -1000 -1000 
-1000 -1000 -1000 -1000 -1000 -1000 -1000 -1000 -1000 
-1000 -1000 -1000 -1000 -1000 -1000 -1000 -1000 -1000 
-1000 -1000 -1000 -1000 -1000 -1000 -1000 -1000 -1000 
-1000 -1000 -1000 -1000 -1000 -1000 -1000 -1000 -1000 
-1000 -1000 -1000 -1000 -1000 -1000 -1000 -1000 -1000 
-1000 -1000 -1000 -1000 -1000 -1000 -1000 -1000 -1000 
-1000 -1000 -1000 -1000 -1000 -1000 -1000 -1000 -1000 
-1000 -1000 -1000 -1000 -1000 -1000 -1000 -1000 -1000 
-1000 -1000 -1000 -1000 -1000 -1000 -1000 -1000 -1000 
-1000 -1000 -1000 -1000 -1000 -1000 -1000 -1000 -1000 
-1000 -1000 -1000 -1000 -1000 -1000 -1000 -1000 -1000 
-1000 -1000 -1000 -1000 -1000 -1000 -1000 -1000 -1000 
-1000 -1000 -1000 -1000 -1000 -1000 -1000 -1000 -1000 
-1000 -1000 -1000 -1000 -1000 -1000 -1000 -1000 -1000 
-1000 -1000 -1000 -1000 -1000 -1000 -1000 -1000 -1000 
-1000 -1000 -1000 -1000 -1000 -1000 -1000 -1000 -1000 
-1000 -1000 -1000 -1000 -1000 -1000 -1000 -1000 -1000 
-1000 -1000 -1000 -1000 -1000 -1000 -1000 -1000 -1000 
-1000 -1000 -1000 -1000 -1000 -1000 -1000 -1000 -1000 
-1000 -1000 -1000 -1000 -1000 -1000 -1000 -1000 -1000 
-1000 -1000 -1000 -1000 -1000 -1000 -1000 -1000 -1000 
-1000 -1000 -1000 -1000 -1000 -1000 -1000 -1000 -1000 
-1000 -1000 -1000 -1000 -1000 -1000 -1000 -1000 -1000 
-1000 -1000 -1000 -1000 -1000 -1000 -1000 -1000 -1000 
-1000 -1000 -1000 -1000 -1000 -1000 -1000 -1000 -1000 
-1000 -1000 -1000 -1000 -1000 -1000 -1000 -1000 -1000 
-1000 -1000 -1000 -1000 -1000 -1000 -1000 -1000 -1000 
-1000 -1000 -1000 -1000 -1000 -1000 -1000 -1000 -1000 
-1000 -1000 -1000 -1000 -1000 -1000 -1000 -1000 -1000 
-1000 -1000 -1000 -1000 -1000 -1000 -1000 -1000 -1000 
-1000 -1000 -1000 -1000 -1000 -1000 -1000 -1000 -1000 
-1000 -1000 -1000 -1000 -1000 -1000 -1000 -1000 -1000 
-1000 -1000 -1000 -1000 -1000 -1000 -1000 -1000 -1000 
-1000 -1000 -1000 -1000 -1000 -1000 -1000 -1000 -1000 
-1000 -1000 -1000 -1000 -1000 -1000 -1000 -1000 -1000 
-1000 -1000 -1000 -1000 -1000 -1000 -1000 -1000 -1000 
-1000 -1000 -1000 -1000 -1000 -1000 -1000 -1000 -1000 
-1000 -1000 -1000 -1000 -1000 -1000 -1000 -1000 -1000 
-1000 -1000 -1000 -1000 -1000 -1000 -1000 -1000 -1000 
-1000 -1000 -1000 -1000 -1000 -1000 -1000 -1000 -1000 
-1000 -1000 -1000 -1000 -1000 -1000 -1000 -1000 -1000 
-1000 -1000 -1000 -1000 -1000 -1000 -1000 -1000 -1000 
-1000 -1000 -1000 -1000 -1000 -1000 -1000 -1000 -1000 
-1000 -1000 -1000 -1000 -1000 -1000 -1000 -1000 -1000 
-1000 -1000 -1000 -1000 -1000 -1000 -1000 -1000 -1000 
-1000 -1000 -1000 -1000 -1000 -1000 -1000 -1000 -1000 
-1000 -1000 -1000 -1000 -1000 -1000 -1000 -1000 -1000 
-1000 -1000 -1000 -1000 -1000 -1000 -1000 -1000 -1000 
-1000 -1000 -1000 -1000 -1000 -1000 -1000 -1000 -1000 
-1000 -1000 -1000 -1000 -1000 -1000 -1000 -1000 -1000 
-1000 -1000 -1000 -1000 -1000 -1000 -1000 -1000 -1000 
-1000 -1000 -1000 -1000 -1000 -1000 -1000 -1000 -1000 
-1000 -1000 -1000 -1000 -1000 -1000 -1000 -1000 -1000 
-1000 -1000 -1000 -1000 -1000 -1000 -1000 -1000 -1000 
-1000 -1000 -1000 -1000 -1000 -1000 -1000 -1000 -1000 
-1000 -1000 -1000 -1000 -1000 -1000 -1000 -1000 -1000 
-1000 -1000 -1000 -1000 -1000 -1000 -1000 -1000 -1000 
-1000 -1000 -1000 -1000 -1000 -1000 -1000 -1000 -1000 
-1000 -1000 -1000 -1000 -1000 -1000 -1000 -1000 -1000 
-1000 -1000 -1000 -1000 -1000 -1000 -1000 -1000 -1000 
-1000 -1000 -1000 -1000 -1000 -1000 -1000 -1000 -1000 
-1000 -1000 -1000 -1000 -1000 -1000 -1000 -1000 -1000 
-1000 -1000 -1000 -1000 -1000 -1000 -1000 -1000 -1000 
-1000 -1000 -1000 -1000 -1000 -1000 -1000 -1000 -1000 
-1000 -1000 -1000 -1000 -1000 -1000 -1000 -1000 -1000 
-1000 -1000 -1000 -1000 -1000 -1000 -1000 -1000 -1000 
-1000 -1000 -1000 -1000 -1000 -1000 -1000 -1000 -1000 
-1000 -1000 -1000 -1000 -1000 -1000 -1000 -1000 -1000 
-1000 -1000 -1000 -1000 -1000 -1000 -1000 -1000 -1000 
-1000 -1000 -1000 -1000 -1000 -1000 -1000 -1000 -1000 
-1000 -1000 -1000 -1000 -1000 -1000 -1000 -1000 -1000 
-1000 -1000 -1000 -1000 -1000 -1000 -1000 -1000 -1000 
-1000 -1000 -1000 -1000 -1000 -1000 -1000 -1000 -1000 
-1000 -1000 -1000 -1000 -1000 -1000 -1000 -1000 -1000 
-1000 -1000 -1000 -1000 -1000 -1000 -1000 -1000 -1000 
-1000 -1000 -1000 -1000 -1000 -1000 -1000 -1000 -1000 
-1000 -1000 -1000 -1000 -1000 -1000 -1000 -1000 -1000 
-1000 -1000 -1000 -1000 -1000 -1000 -1000 -1000 -1000 
-1000 -1000 -1000 -1000 -1000 -1000 -1000 -1000 -1000 
-1000 -1000 -1000 -1000 -1000 -1000 -1000 -1000 -1000 
-1000 -1000 -1000 -1000 -1000 -1000 -1000 -1000 -1000 
-1000 -1000 -1000 -1000 -1000 -1000 -1000 -1000 -1000 
-1000 -1000 -1000 -1000 -1000 -1000 -1000 -1000 -1000 
-1000 -1000 -1000 -1000 -1000 -1000 -1000 -1000 -1000 
-1000 -1000 -1000 -1000 -1000 -1000 -1000 -1000 -1000 
-1000 -1000 -1000 -1000 -1000 -1000 -1000 -1000 -1000 
-1000 -1000 -1000 -1000 -1000 -1000 -1000 -1000 -1000 
-1000 -1000 -1000 -1000 -1000 -1000 -1000 -1000 -1000 
-1000 -1000 -1000 -1000 -1000 -1000 -1000 -1000 -1000 
-1000 -1000 -1000 -1000 -1000 -1000 -1000 -1000 -1000 
-1000 -1000 -1000 -1000 -1000 -1000 -1000 -1000 -1000 
-1000 -1000 -1000 -1000 -1000 -1000 -1000 -1000 -1000 
-1000 -1000 -1000 -1000 -1000 -1000 -1000 -1000 -1000 
-1000 -1000 -1000 -1000 -1000 -1000 -1000 -1000 -1000 
-1000 -1000 -1000 -1000 -1000 -1000 -1000 -1000 -1000 
-1000 -1000 -1000 -1000 -1000 -1000 -1000 -1000 -1000 
-1000 -1000 -1000 -1000 -1000 -1000 -1000 -1000 -1000 
-1000 -1000 -1000 -1000 -1000 -1000 -1000 -1000 -1000 
-1000 -1000 -1000 -1000 -1000 -1000 -1000 -1000 -1000 
-1000 -1000 -1000 -1000 -1000 -1000 -1000 -1000 -1000 
-1000 -1000 -1000 -1000 -1000 -1000 -1000 -1000 -1000 
-1000 -1000 -1000 -1000 -1000 -1000 -1000 -1000 -1000 
-1000 -1000 -1000 -1000 -1000 -1000 -1000 -1000 -1000 
-1000 -1000 -1000 -1000 -1000 -1000 -1000 -1000 -1000 
-1000 -1000 -1000 -1000 -1000 -1000 -1000 -1000 -1000 
-1000 -1000 -1000 -1000 -1000 -1000 -1000 -1000 -1000 
-1000 -1000 -1000 -1000 -1000 -1000 -1000 -1000 -1000 
-1000 -1000 -1000 -1000 -1000 -1000 -1000 -1000 -1000 
-1000 -1000 -1000 -1000 -1000 -1000 -1000 -1000 -1000 
-1000 -1000 -1000 -1000 -1000 -1000 -1000 -1000 -1000 
-1000 -1000 -1000 -1000 -1000 -1000 -1000 -1000 -1000 
-1000 -1000 -1000 -1000 -1000 -1000 -1000 -1000 -1000 
-1000 -1000 -1000 -1000 -1000 -1000 -1000 -1000 -1000 
-1000 -1000 -1000 -1000 -1000 -1000 -1000 -1000 -1000 
-1000 -1000 -1000 -1000 -1000 -1000 -1000 -1000 -1000 
-1000 -1000 -1000 -1000 -1000 -1000 -1000 -1000 -1000 
-1000 -1000 -1000 -1000 -1000 -1000 -1000 -1000 -1000 
-1000 -1000 -1000 -1000 -1000 -1000 -1000 -1000 -1000 
-1000 -1000 -1000 -1000 -1000 -1000 -1000 -1000 -1000 
-1000 -1000 -1000 -1000 -1000 -1000 -1000 -1000 -1000 
-1000 -1000 -1000 -1000 -1000 -1000 -1000 -1000 -1000 
-1000 -1000 -1000 -1000 -1000 -1000 -1000 -1000 -1000 
-1000 -1000 -1000 -1000 -1000 -1000 -1000 -1000 -1000 
-1000 -1000 -1000 -1000 -1000 -1000 -1000 -1000 -1000 
-1000 -1000 -1000 -1000 -1000 -1000 -1000 -1000 -1000 
-1000 -1000 -1000 -1000 -1000 -1000 -1000 -1000 -1000 
-1000 -1000 -1000 -1000 -1000 -1000 -1000 -1000 -1000 
-1000 -1000 -1000 -1000 -1000 -1000 -1000 -1000 -1000 
-1000 -1000 -1000 -1000 -1000 -1000 -1000 -1000 -1000 
-1000 -1000 -1000 -1000 -1000 -1000 -1000 -1000 -1000 
-1000 -1000 -1000 -1000 -1000 -1000 -1000 -1000 -1000 
-1000 -1000 -1000 -1000 -1000 -1000 -1000 -1000 -1000 
-1000 -1000 -1000 -1000 -1000 -1000 -1000 -1000 -1000 
-1000 -1000 -1000 -1000 -1000 -1000 -1000 -1000 -1000 
-1000 -1000 -1000 -1000 -1000 -1000 -1000 -1000 -1000 
-1000 -1000 -1000 -1000 -1000 -1000 -1000 -1000 -1000 
-1000 -1000 -1000 -1000 -1000 -1000 -1000 -1000 -1000 
-1000 -1000 -1000 -1000 -1000 -1000 -1000 -1000 -1000 
-1000 -1000 -1000 -1000 -1000 -1000 -1000 -1000 -1000 
-1000 -1000 -1000 -1000 -1000 -1000 -1000 -1000 -1000 
-1000 -1000 -1000 -1000 -1000 -1000 -1000 -1000 -1000 
-1000 -1000 -1000 -1000 -1000 -1000 -1000 -1000 -1000 
-1000 -1000 -1000 -1000 -1000 -1000 -1000 -1000 -1000 
-1000 -1000 -1000 -1000 -1000 -1000 -1000 -1000 -1000 
-1000 -1000 -1000 -1000 -1000 -1000 -1000 -1000 -1000 
-1000 -1000 -1000 -1000 -1000 -1000 -1000 -1000 -1000 
-1000 -1000 -1000 -1000 -1000 -1000 -1000 -1000 -1000 
-1000 -1000 -1000 -1000 -1000 -1000 -1000 -1000 -1000 
-1000 -1000 -1000 -1000 -1000 -1000 -1000 -1000 -1000 
-1000 -1000 -1000 -1000 -1000 -1000 -1000 -1000 -1000 
-1000 -1000 -1000 -1000 -1000 -1000 -1000 -1000 -1000 
-1000 -1000 -1000 -1000 -1000 -1000 -1000 -1000 -1000 
-1000 -1000 -1000 -1000 -1000 -1000 -1000 -1000 -1000 
-1000 -1000 -1000 -1000 -1000 -1000 -1000 -1000 -1000 
-1000 -1000 -1000 -1000 -1000 -1000 -1000 -1000 -1000 
-1000 -1000 -1000 -1000 -1000 -1000 -1000 -1000 -1000 
-1000 -1000 -1000 -1000 -1000 -1000 -1000 -1000 -1000 
-1000 -1000 -1000 -1000 -1000 -1000 -1000 -1000 -1000 
-1000 -1000 -1000 -1000 -1000 -1000 -1000 -1000 -1000 
-1000 -1000 -1000 -1000 -1000 -1000 -1000 -1000 -1000 
-1000 -1000 -1000 -1000 -1000 -1000 -1000 -1000 -1000 
-1000 -1000 -1000 -1000 -1000 -1000 -1000 -1000 -1000 
-1000 -1000 -1000 -1000 -1000 -1000 -1000 -1000 -1000 
-1000 -1000 -1000 -1000 -1000 -1000 -1000 -1000 -1000 
-1000 -1000 -1000 -1000 -1000 -1000 -1000 -1000 -1000 
-1000 -1000 -1000 -1000 -1000 -1000 -1000 -1000 -1000 
-1000 -1000 -1000 -1000 -1000 -1000 -1000 -1000 -1000 
-1000 -1000 -1000 -1000 -1000 -1000 -1000 -1000 -1000 
-1000 -1000 -1000 -1000 -1000 -1000 -1000 -1000 -1000 
-1000 -1000 -1000 -1000 -1000 -1000 -1000 -1000 -1000 
-1000 -1000 -1000 -1000 -1000 -1000 -1000 -1000 -1000 
-1000 -1000 -1000 -1000 -1000 -1000 -1000 -1000 -1000 
-1000 -1000 -1000 -1000 -1000 -1000 -1000 -1000 -1000 
-1000 -1000 -1000 -1000 -1000 -1000 -1000 -1000 -1000 
-1000 -1000 -1000 -1000 -1000 -1000 -1000 -1000 -1000 
-1000 -1000 -1000 -1000 -1000 -1000 -1000 -1000 -1000 
-1000 -1000 -1000 -1000 -1000 -1000 -1000 -1000 -1000 
-1000 -1000 -1000 -1000 -1000 -1000 -1000 -1000 -1000 
-1000 -1000 -1000 -1000 -1000 -1000 -1000 -1000 -1000 
-1000 -1000 -1000 -1000 -1000 -1000 -1000 -1000 -1000 
-1000 -1000 -1000 -1000 -1000 -1000 -1000 -1000 -1000 
-1000 -1000 -1000 -1000 -1000 -1000 -1000 -1000 -1000 
-1000 -1000 -1000 -1000 -1000 -1000 -1000 -1000 -1000 
-1000 -1000 -1000 -1000 -1000 -1000 -1000 -1000 -1000 
-1000 -1000 -1000 -1000 -1000 -1000 -1000 -1000 -1000 
-1000 -1000 -1000 -1000 -1000 -1000 -1000 -1000 -1000 
-1000 -1000 -1000 -1000 -1000 -1000 -1000 -1000 -1000 
-1000 -1000 -1000 -1000 -1000 -1000 -1000 -1000 -1000 
-1000 -1000 -1000 -1000 -1000 -1000 -1000 -1000 -1000 
-1000 -1000 -1000 -1000 -1000 -1000 -1000 -1000 -1000 
-1000 -1000 -1000 -1000 -1000 -1000 -1000 -1000 -1000 
-1000 -1000 -1000 -1000 -1000 -1000 -1000 -1000 -1000 
-1000 -1000 -1000 -1000 -1000 -1000 -1000 -1000 -1000 
-1000 -1000 -1000 -1000 -1000 -1000 -1000 -1000 -1000 
-1000 -1000 -1000 -1000 -1000 -1000 -1000 -1000 -1000 
-1000 -1000 -1000 -1000 -1000 -1000 -1000 -1000 -1000 
-1000 -1000 -1000 -1000 -1000 -1000 -1000 -1000 -1000 
-1000 -1000 -1000 -1000 -1000 -1000 -1000 -1000 -1000 
-1000 -1000 -1000 -1000 -1000 -1000 -1000 -1000 -1000 
-1000 -1000 -1000 -1000 -1000 -1000 -1000 -1000 -1000 