# vtk DataFile Version 3.0
vtk output
ASCII
DATASET POLYDATA
POINTS 17746 float
-88.1957 -19.8472 -9.38315 -87.5124 -20.7309 -8.98602 -87.127 -20.2483 -9.12914 
-89.2959 -19.8025 -9.40364 -88.428 -20.6721 -9.05145 -89.3364 -20.4298 -9.11724 
-86.2094 -19.0964 -9.36743 -85.4467 -19.8238 -9.01929 -85.1685 -19.0172 -9.18723 
-87.3738 -19.2362 -9.5043 -86.284 -20.0791 -9.0726 -88.5203 -18.8292 -9.76198 
-89.3856 -18.876 -9.75025 -90.0236 -19.7948 -9.31517 -90.4533 -18.8344 -9.62232 
-91.4413 -18.4419 -9.49484 -90.8845 -19.3607 -9.30137 -91.7614 -18.7668 -9.25629 
-86.0635 -17.9192 -9.65155 -84.9613 -18.1735 -9.36477 -87.2657 -18.0657 -9.79818 
-88.3982 -17.9998 -9.94457 -89.4419 -17.8827 -10.025 -90.4623 -17.7515 -9.94524 
-91.4568 -17.607 -9.7132 -92.3236 -17.6321 -9.33904 -85.3115 -16.993 -9.76921 
-84.361 -17.8432 -9.32125 -84.2161 -17.1606 -9.50269 -86.5274 -16.7217 -10.0064 
-87.3887 -16.8889 -10.0538 -88.4435 -16.9167 -10.1418 -89.5072 -16.8298 -10.1832 
-90.3674 -16.8537 -10.1262 -91.449 -16.4008 -9.86504 -92.2176 -16.6664 -9.5263 
-84.5997 -16.0838 -9.91025 -83.6843 -16.7784 -9.48721 -83.6136 -15.8406 -9.72279 
-85.6733 -15.7415 -10.1693 -86.5211 -15.7998 -10.2053 -87.5716 -15.7328 -10.2662 
-88.6331 -15.7407 -10.2962 -89.5069 -15.8792 -10.2844 -90.7783 -15.4588 -10.1207 
-92.0417 -15.0416 -9.64616 -92.4867 -15.6675 -9.3923 -84.5475 -14.8548 -10.2086 
-83.6122 -14.6993 -9.96427 -85.5825 -14.8356 -10.3711 -86.596 -14.7511 -10.4329 
-87.6404 -14.6219 -10.4238 -88.7898 -14.5001 -10.3918 -90.0335 -14.5493 -10.2975 
-91.2336 -14.0883 -10.0809 -91.8407 -14.299 -9.82245 -84.6008 -13.6984 -10.4233 
-83.7451 -13.5281 -10.1514 -85.6182 -13.714 -10.5838 -86.6911 -13.6703 -10.6027 
-87.5583 -13.7327 -10.5445 -88.7729 -13.2101 -10.4275 -89.9735 -13.261 -10.2926 
-91.1292 -13.1599 -10.1052 -84.7096 -12.6172 -10.5204 -84.0425 -12.3845 -10.2521 
-85.6595 -12.6088 -10.6904 -86.772 -12.5303 -10.7002 -88.0129 -12.4859 -10.5462 
-89.227 -11.9661 -10.312 -90.0768 -12.1064 -10.1912 -90.9505 -12.2628 -10.0947 
-84.8575 -11.7812 -10.4817 -84.6077 -11.4028 -10.2813 -85.664 -11.6383 -10.6193 
-86.742 -11.4825 -10.6527 -87.8799 -11.3652 -10.5385 -89.036 -11.1609 -10.3028 
-85.5681 -10.8791 -10.3989 -86.7025 -10.5662 -10.4455 -87.8625 -10.3948 -10.3919 
-88.808 -10.4001 -10.2768 -87.8281 -23.2187 -8.21754 -87.2577 -24.0588 -7.99172 
-86.8253 -23.5553 -8.10267 -89.0148 -23.2388 -8.20265 -88.1399 -24.1288 -7.97587 
-90.1194 -23.1251 -8.16287 -89.2207 -24.0872 -7.93896 -91.133 -22.9318 -8.07845 
-90.3033 -23.8741 -7.88649 -91.21 -23.5044 -7.84713 -85.557 -22.4079 -8.33088 
-85.0143 -23.1239 -8.13418 -84.5937 -22.5172 -8.25247 -86.8354 -22.645 -8.34247 
-85.9261 -23.3741 -8.11536 -87.9553 -22.2517 -8.4892 -88.9256 -22.2894 -8.47149 
-90.0529 -22.2034 -8.44715 -91.1834 -22.052 -8.39454 -91.8346 -22.8333 -7.96262 
-92.2728 -21.9514 -8.25293 -92.5335 -22.4107 -7.99116 -84.5486 -21.5678 -8.47927 
-83.8926 -22.2236 -8.30397 -83.5275 -21.5986 -8.43461 -85.6386 -21.5411 -8.56116 
-86.3821 -21.8655 -8.52828 -87.4742 -21.5448 -8.68932 -88.8728 -21.2946 -8.78084 
-90.0606 -21.201 -8.72495 -91.2451 -21.0011 -8.68723 -92.4268 -20.8461 -8.61843 
-93.1868 -21.7194 -8.16203 -93.6292 -20.7278 -8.45976 -94.6997 -20.302 -8.29658 
-94.118 -21.2365 -8.12239 -95.1499 -20.5845 -7.90272 -83.5521 -20.6628 -8.60666 
-82.8389 -21.2893 -8.46487 -82.5266 -20.6666 -8.52445 -84.446 -20.7392 -8.66038 
-85.3073 -20.7047 -8.75292 -86.5027 -21.0039 -8.79088 -90.0852 -20.3514 -9.03197 
-91.3174 -19.8578 -8.99352 -92.5092 -19.6806 -8.8729 -93.6748 -19.5444 -8.74979 
-94.7434 -19.44 -8.49041 -95.4989 -19.5342 -8.0588 -82.6654 -19.7788 -8.62226 
-81.8941 -20.313 -8.46706 -81.6662 -19.477 -8.47699 -83.582 -19.6407 -8.77201 
-84.4868 -19.9404 -8.84067 -92.5355 -18.5683 -9.07776 -93.7028 -18.2309 -8.87434 
-94.7565 -18.3168 -8.61914 -95.7628 -18.2346 -8.06727 -82.4192 -18.7042 -8.70466 
-81.4961 -18.4663 -8.53737 -83.2126 -18.9631 -8.82475 -84.1346 -18.8034 -9.02658 
-93.3001 -17.3255 -9.00449 -94.0734 -17.0467 -8.78132 -94.7603 -17.1868 -8.59112 
-95.5214 -17.2852 -8.27156 -82.22 -17.6715 -8.83801 -81.4137 -17.6037 -8.65399 
-83.3659 -17.8542 -9.09447 -93.0895 -16.264 -9.08706 -93.8445 -16.3926 -8.79627 
-81.829 -16.6293 -8.97874 -80.9451 -17.1491 -8.68604 -80.9147 -16.2163 -8.88353 
-82.8726 -16.7522 -9.25247 -92.8345 -14.7672 -9.19407 -93.2195 -15.1994 -8.98196 
-81.84 -15.3525 -9.24216 -80.9769 -15.0336 -9.07532 -82.7195 -15.6349 -9.47142 
-92.3274 -13.1438 -9.74145 -92.8394 -13.9318 -9.32468 -81.9802 -14.1214 -9.43559 
-81.1483 -13.8127 -9.22963 -82.7837 -14.4358 -9.68989 -92.2286 -11.8311 -9.88057 
-93.4531 -12.9105 -9.26877 -93.6759 -11.8559 -9.49987 -94.8232 -11.3704 -9.22253 
-94.6841 -12.2761 -8.82545 -95.4318 -11.3416 -8.8668 -82.2691 -12.8385 -9.58685 
-81.393 -12.5661 -9.36403 -83.0373 -13.1852 -9.85896 -90.1747 -11.0133 -10.0885 
-91.3918 -11.0697 -9.96754 -92.6496 -10.6004 -9.86348 -93.5848 -10.6911 -9.7363 
-94.6656 -10.6304 -9.47644 -95.5352 -10.5953 -9.09517 -82.6063 -11.5285 -9.69532 
-81.6655 -11.3158 -9.48371 -83.6398 -11.7143 -9.98287 -90.0469 -9.91559 -10.0394 
-91.3055 -9.89148 -9.91792 -92.493 -9.74075 -9.86914 -93.6383 -9.57815 -9.80019 
-94.6758 -9.5694 -9.61493 -95.5806 -9.63042 -9.27761 -82.885 -10.2824 -9.77277 
-81.962 -10.1075 -9.57904 -83.9754 -10.3266 -9.9683 -85.2077 -10.2558 -10.1526 
-86.6635 -9.72274 -10.218 -87.9192 -9.44796 -10.1915 -89.221 -9.31777 -10.0903 
-90.4647 -8.79567 -9.93107 -91.3454 -8.81459 -9.88202 -92.445 -8.69469 -9.85943 
-93.5973 -8.50963 -9.8405 -94.8457 -8.30868 -9.69846 -95.6464 -8.60513 -9.41401 
-83.08 -9.18787 -9.8169 -82.3046 -9.15648 -9.64098 -84.1905 -9.11086 -10.0072 
-85.4328 -9.00171 -10.0979 -86.7157 -8.77093 -10.1082 -87.9717 -8.49442 -10.0733 
-89.1692 -8.27699 -10.0094 -90.327 -8.03586 -9.92515 -91.3932 -7.82089 -9.86368 
-92.426 -7.66188 -9.85488 -93.5116 -7.4682 -9.87271 -94.645 -7.24729 -9.82845 
-95.8336 -7.75172 -9.48936 -95.7884 -6.97938 -9.6079 -96.3428 -7.18046 -9.34517 
-83.0535 -8.4571 -9.79541 -83.3997 -7.57853 -9.89989 -84.2263 -7.95583 -10.0434 
-85.5832 -7.85773 -10.1567 -86.8543 -7.70018 -10.1305 -88.0664 -7.49816 -10.06 
-89.214 -7.28992 -9.98792 -90.3103 -7.08357 -9.92164 -91.3654 -6.87298 -9.87227 
-92.3949 -6.66618 -9.86146 -93.4329 -6.45671 -9.88907 -94.4973 -6.24371 -9.89176 
-95.5542 -6.05107 -9.74061 -96.581 -6.57957 -9.27153 -96.4736 -5.92866 -9.34781 
-97.0994 -6.07232 -8.74146 -84.5882 -6.71711 -10.1716 -83.6872 -6.55031 -10.0242 
-85.7119 -6.74492 -10.2573 -86.9569 -6.63895 -10.2207 -88.1513 -6.48117 -10.1195 
-89.269 -6.30117 -10.0221 -90.3246 -6.11003 -9.9486 -91.3425 -5.90758 -9.90195 
-92.3437 -5.69278 -9.89108 -93.35 -5.46973 -9.91584 -94.3736 -5.25333 -9.92646 
-95.3977 -5.08226 -9.79568 -96.3485 -5.02559 -9.38503 -97.1031 -5.17881 -8.69881 
-84.7251 -5.7417 -10.245 -83.9736 -5.72157 -10.1143 -85.7972 -5.67659 -10.3526 
-87.0077 -5.60118 -10.3255 -88.1897 -5.47592 -10.212 -89.2916 -5.31936 -10.0941 
-90.3217 -5.14182 -10.0091 -91.3082 -4.94521 -9.96225 -92.2784 -4.73002 -9.95376 
-93.2531 -4.50002 -9.97745 -94.2462 -4.27289 -9.98557 -95.2507 -4.09551 -9.85185 
-96.2116 -4.05056 -9.41447 -97.0345 -4.2326 -8.6293 -84.6266 -5.09292 -10.2472 
-84.7829 -4.26691 -10.3468 -85.6833 -4.61275 -10.412 -86.9912 -4.57076 -10.4194 
-88.1759 -4.47945 -10.3161 -89.2687 -4.3449 -10.1934 -90.2837 -4.18036 -10.1034 
-91.247 -3.9894 -10.0579 -92.1896 -3.77394 -10.0535 -93.1334 -3.54342 -10.0793 
-94.0935 -3.30693 -10.0895 -95.079 -3.10265 -9.9609 -96.0518 -3.03434 -9.51107 
-96.9147 -3.21592 -8.65241 -85.7694 -3.29531 -10.5823 -84.7402 -3.42477 -10.4932 
-86.9557 -3.49349 -10.5324 -88.1151 -3.47018 -10.4344 -89.198 -3.36358 -10.3191 
-90.2034 -3.21408 -10.233 -91.151 -3.03535 -10.1898 -92.0678 -2.82411 -10.1834 
-92.986 -2.59153 -10.2013 -93.902 -2.37906 -10.2125 -94.8387 -2.1405 -10.1134 
-95.8304 -1.97789 -9.70431 -96.763 -2.11645 -8.81857 -85.0543 -2.42888 -10.7436 
-84.1563 -3.04341 -10.5655 -83.9972 -2.17422 -10.7756 -86.0937 -2.21897 -10.7894 
-86.9531 -2.41005 -10.694 -88.0206 -2.44003 -10.5812 -89.0764 -2.36219 -10.4714 
-90.0759 -2.2283 -10.3917 -91.0211 -2.06724 -10.3472 -91.9091 -1.89837 -10.3267 
-92.7884 -1.65575 -10.312 -93.7096 -1.42922 -10.2907 -94.5101 -1.3993 -10.232 
-95.4247 -0.905545 -9.96483 -96.5569 -0.877916 -9.17663 -84.8103 -1.32752 -10.9624 
-83.8961 -1.12389 -10.9637 -85.8245 -1.38896 -10.944 -86.8515 -1.40585 -10.8699 
-87.8694 -1.41672 -10.7475 -88.8936 -1.34643 -10.6283 -89.8895 -1.22313 -10.5441 
-90.8448 -1.07515 -10.494 -91.7585 -0.938552 -10.4444 -92.5101 -0.91727 -10.3925 
-93.4008 -0.383519 -10.2975 -94.5278 -0.353155 -10.1817 -95.3963 0.107833 -9.97812 
-96.0562 -0.0319201 -9.68154 -84.6288 -0.376782 -11.0847 -83.9516 -0.276306 -11.0603 
-85.5667 -0.399106 -11.0771 -86.6176 -0.427352 -11.006 -87.6406 -0.441998 -10.8884 
-88.6274 -0.359531 -10.7425 -89.6207 -0.216822 -10.6181 -90.5953 -0.0888491 -10.5523 
-91.543 0.0518514 -10.4895 -92.5585 0.160403 -10.3645 -93.4093 0.66919 -10.1857 
-94.1744 0.633143 -10.1135 -94.9767 0.626578 -10.0188 -84.4255 0.294116 -11.1077 
-84.5938 1.06285 -11.061 -85.2534 0.591446 -11.1013 -86.345 0.556133 -11.0382 
-87.4063 0.519718 -10.9148 -88.2716 0.410604 -10.7938 -89.2151 0.814371 -10.5555 
-90.2806 0.85335 -10.4466 -91.2241 0.972969 -10.3987 -92.129 1.10317 -10.3153 
-92.9951 1.33361 -10.1685 -85.2926 1.45785 -11.0027 -84.9264 1.86268 -10.9368 
-86.079 1.46325 -10.9388 -87.1329 1.46653 -10.8 -88.2839 1.39525 -10.6013 
-89.192 1.77055 -10.3036 -89.9844 1.74773 -10.2208 -90.9039 1.82692 -10.1898 
-91.8029 1.95378 -10.181 -92.5627 1.98104 -10.1406 -85.7432 2.20802 -10.8146 
-86.7753 2.33187 -10.65 -87.8551 2.33505 -10.4589 -88.7366 2.27015 -10.2753 
-90.0539 -27.3574 -7.40255 -89.6144 -28.1328 -7.10169 -89.1086 -27.7138 -7.25769 
[...]
POINT_DATA 17746
SCALARS scalars float
LOOKUP_TABLE default
-1000 -1000 -1000 -1000 -1000 -1000 -1000 -1000 -1000 
-1000 -1000 -1000 -1000 -1000 -1000 -1000 -1000 -1000 
-1000 -1000 -1000 -1000 -1000 -1000 -1000 -1000 -1000 
-1000 -1000 -1000 -1000 -1000 -1000 -1000 -1000 -1000 
-1000 -1000 -1000 -1000 -1000 -1000 -1000 -1000 -1000 
-1000 -1000 -1000 -1000 -1000 -1000 -1000 -1000 -1000 
-1000 -1000 -1000 -1000 -1000 -1000 -1000 -1000 -1000 
-1000 -1000 -1000 -1000 -1000 -1000 -1000 -1000 -1000 
-1000 -1000 -1000 -1000 -1000 -1000 -1000 -1000 -1000 
-1000 -1000 -1000 -1000 -1000 -1000 -1000 -1000 -1000 
-1000 -1000 -1000 -1000 -1000 -1000 -1000 -1000 -1000 
-1000 -1000 -1000 -1000 -1000 -1000 -1000 -1000 -1000 
-1000 -1000 -1000 -1000 -1000 -1000 -1000 -1000 -1000 
-1000 -1000 -1000 -1000 -1000 -1000 -1000 -1000 -1000 
-1000 -1000 -1000 -1000 -1000 -1000 -1000 -1000 -1000 
-1000 -1000 -1000 -1000 -1000 -1000 -1000 -1000 -1000 
-1000 -1000 -1000 -1000 -1000 -1000 -1000 -1000 -1000 
-1000 -1000 -1000 -1000 -1000 -1000 -1000 -1000 -1000 
-1000 -1000 -1000 -1000 -1000 -1000 -1000 -1000 -1000 
-1000 -1000 -1000 -1000 -1000 -1000 -1000 -1000 -1000 
-1000 -1000 -1000 -1000 -1000 -1000 -1000 -1000 -1000 
-1000 -1000 -1000 -1000 -1000 -1000 -1000 -1000 -1000 
-1000 -1000 -1000 -1000 -1000 -1000 -1000 -1000 -1000 
-1000 -1000 -1000 -1000 -1000 -1000 -1000 -1000 -1000 
-1000 -1000 -1000 -1000 -1000 -1000 -1000 -1000 -1000 
-1000 -1000 -1000 -1000 -1000 -1000 -1000 -1000 -1000 
-1000 -1000 -1000 -1000 -1000 -1000 -1000 -1000 -1000 
-1000 -1000 -1000 -1000 -1000 -1000 -1000 -1000 -1000 
-1000 -1000 -1000 -1000 -1000 -1000 -1000 -1000 -1000 
-1000 -1000 -1000 -1000 -1000 -1000 -1000 -1000 -1000 
-1000 -1000 -1000 -1000 -1000 -1000 -1000 -1000 -1000 
-1000 -1000 -1000 -1000 -1000 -1000 -1000 -1000 -1000 
-1000 -1000 -1000 -1000 -1000 -1000 -1000 -1000 -1000 
-1000 -1000 -1000 -1000 -1000 -1000 -1000 -1000 -1000 
-1000 -1000 -1000 -1000 -1000 -1000 -1000 -1000 -1000 
-1000 -1000 -1000 -1000 -1000 -1000 -1000 -1000 -1000 
-1000 -1000 -1000 -1000 -1000 -1000 -1000 -1000 -1000 
-1000 -1000 -1000 -1000 -1000 -1000 -1000 -1000 -1000 
-1000 -1000 -1000 -1000 -1000 -1000 -1000 -1000 -1000 
-1000 -1000 -1000 -1000 -1000 -1000 -1000 -1000 -1000 
-1000 -1000 -1000 -1000 -1000 -1000 -1000 -1000 -1000 
-1000 -1000 -1000 -1000 -1000 -1000 -1000 -1000 -1000 
-1000 -1000 -1000 -1000 -1000 -1000 -1000 -1000 -1000 
-1000 -1000 -1000 -1000 -1000 -1000 -1000 -1000 -1000 
-1000 -1000 -1000 -1000 -1000 -1000 -1000 -1000 -1000 
-1000 -1000 -1000 -1000 -1000 -1000 -1000 -1000 -1000 
-1000 -1000 -1000 -1000 -1000 -1000 -1000 -1000 -1000 
-1000 -1000 -1000 -1000 -1000 -1000 -1000 -1000 -1000 
-1000 -1000 -1000 -1000 -1000 -1000 -1000 -1000 -1000 
-1000 -1000 -1000 -1000 -1000 -1000 -1000 -1000 -1000 
-1000 -1000 -1000 -1000 -1000 -1000 -1000 -1000 -1000 
-1000 -1000 -1000 -1000 -1000 -1000 -1000 -1000 -1000 
-1000 -1000 -1000 -1000 -1000 -1000 -1000 -1000 -1000 
-1000 -1000 -1000 -1000 -1000 -1000 -1000 -1000 -1000 
-1000 -1000 -1000 -1000 -1000 -1000 -1000 -1000 -1000 
-1000 -1000 -1000 -1000 -1000 -1000 -1000 -1000 -1000 
-1000 -1000 -1000 -1000 -1000 -1000 -1000 -1000 -1000 
-1000 -1000 -1000 -1000 -1000 -1000 -1000 -1000 -1000 
-1000 -1000 -1000 -1000 -1000 -1000 -1000 -1000 -1000 
-1000 -1000 -1000 -1000 -1000 -1000 -1000 -1000 -1000 
-1000 -1000 -1000 -1000 -1000 -1000 -1000 -1000 -1000 
-1000 -1000 -1000 -1000 -1000 -1000 -1000 -1000 -1000 
-1000 -1000 -1000 -1000 -1000 -1000 -1000 -1000 -1000 
-1000 -1000 -1000 -1000 -1000 -1000 -1000 -1000 -1000 
-1000 -1000 -1000 -1000 -1000 -1000 -1000 -1000 -1000 
-1000 -1000 -1000 -1000 -1000 -1000 -1000 -1000 -1000 
-1000 -1000 -1000 -1000 -1000 -1000 -1000 -1000 -1000 
-1000 -1000 -1000 -1000 -1000 -1000 -1000 -1000 -1000 
-1000 -1000 -1000 -1000 -1000 -1000 -1000 -1000 -1000 
-1000 -1000 -1000 -1000 -1000 -1000 -1000 -1000 -1000 
-1000 -1000 -1000 -1000 -1000 -1000 -1000 -1000 -1000 
-1000 -1000 -1000 -1000 -1000 -1000 -1000 -1000 -1000 
-1000 -1000 -1000 -1000 -1000 -1000 -1000 -1000 -1000 
-1000 -1000 -1000 -1000 -1000 -1000 -1000 -1000 -1000 
-1000 -1000 -1000 -1000 -1000 -1000 -1000 -1000 -1000 
-1000 -1000 -1000 -1000 -1000 -1000 -1000 -1000 -1000 
-1000 -1000 -1000 -1000 -1000 -1000 -1000 -1000 -1000 
-1000 -1000 -1000 -1000 -1000 -1000 -1000 -1000 -1000 
-1000 -1000 -1000 -1000 -1000 -1000 -1000 -1000 -1000 
-1000 -1000 -1000 -1000 -1000 -1000 -1000 -1000 -1000 
-1000 -1000 -1000 -1000 -1000 -1000 -1000 -1000 -1000 
-1000 -1000 -1000 -1000 -1000 -1000 -1000 -1000 -1000 
-1000 -1000 -1000 -1000 -1000 -1000 -1000 -1000 -1000 
-1000 -1000 -1000 -1000 -1000 -1000 -1000 -1000 -1000 
-1000 -1000 -1000 -1000 -1000 -1000 -1000 -1000 -1000 
-1000 -1000 -1000 -1000 -1000 -1000 -1000 -1000 -1000 
-1000 -1000 -1000 -1000 -1000 -1000 -1000 -1000 -1000 
-1000 -1000 -1000 -1000 -1000 -1000 -1000 -1000 -1000 
-1000 -1000 -1000 -1000 -1000 -1000 -1000 -1000 -1000 
-1000 -1000 -1000 -1000 -1000 -1000 -1000 -1000 -1000 
-1000 -1000 -1000 -1000 -1000 -1000 -1000 -1000 -1000 
-1000 -1000 -1000 -1000 -1000 -1000 -1000 -1000 -1000 
-1000 -1000 -1000 -1000 -1000 -1000 -1000 -1000 -1000 
-1000 -1000 -1000 -1000 -1000 -1000 -1000 -1000 -1000 
-1000 -1000 -1000 -1000 -1000 -1000 -1000 -1000 -1000 
-1000 -1000 -1000 -1000 -1000 -1000 -1000 -1000 -1000 
-1000 -1000 -1000 -1000 -1000 -1000 -1000 -1000 -1000 
-1000 -1000 -1000 -1000 -1000 -1000 -1000 -1000 -1000 
-1000 -1000 -1000 -1000 -1000 -1000 -1000 -1000 -1000 
-1000 -1000 -1000 -1000 -1000 -1000 -1000 -1000 -1000 
-1000 -1000 -1000 -1000 -1000 -1000 -1000 -1000 -1000 
-1000 -1000 -1000 -1000 -1000 -1000 -1000 -1000 -1000 
-1000 -1000 -1000 -1000 -1000 -1000 -1000 -1000 -1000 
-1000 -1000 -1000 -1000 -1000 -1000 -1000 -1000 -1000 
-1000 -1000 -1000 -1000 -1000 -1000 -1000 -1000 -1000 
-1000 -1000 -1000 -1000 -1000 -1000 -1000 -1000 -1000 
-1000 -1000 -1000 -1000 -1000 -1000 -1000 -1000 -1000 
-1000 -1000 -1000 -1000 -1000 -1000 -1000 -1000 -1000 
-1000 -1000 -1000 -1000 -1000 -1000 -1000 -1000 -1000 
-1000 -1000 -1000 -1000 -1000 -1000 -1000 -1000 -1000 
-1000 -1000 -1000 -1000 -1000 -1000 -1000 -1000 -1000 
-1000 -1000 -1000 -1000 -1000 -1000 -1000 -1000 -1000 
-1000 -1000 -1000 -1000 -1000 -1000 -1000 -1000 -1000 
-1000 -1000 -1000 -1000 -1000 -1000 -1000 -1000 -1000 
-1000 -1000 -1000 -1000 -1000 -1000 -1000 -1000 -1000 
-1000 -1000 -1000 -1000 -1000 -1000 -1000 -1000 -1000 
-1000 -1000 -1000 -1000 -1000 -1000 -1000 -1000 -1000 
-1000 -1000 -1000 -1000 -1000 -1000 -1000 -1000 -1000 
-1000 -1000 -1000 -1000 -1000 -1000 -1000 -1000 -1000 
-1000 -1000 -1000 -1000 -1000 -1000 -1000 -1000 -1000 
-1000 -1000 -1000 -1000 -1000 -1000 -1000 -1000 -1000 
-1000 -1000 -1000 -1000 -1000 -1000 -1000 -1000 -1000 
-1000 -1000 -1000 -1000 -1000 -1000 -1000 -1000 -1000 
-1000 -1000 -1000 -1000 -1000 -1000 -1000 -1000 -1000 
-1000 -1000 -1000 -1000 -1000 -1000 -1000 -1000 -1000 
-1000 -1000 -1000 -1000 -1000 -1000 -1000 -1000 -1000 
-1000 -1000 -1000 -1000 -1000 -1000 -1000 -1000 -1000 
-1000 -1000 -1000 -1000 -1000 -1000 -1000 -1000 -1000 
-1000 -1000 -1000 -1000 -1000 -1000 -1000 -1000 -1000 
-1000 -1000 -1000 -1000 -1000 -1000 -1000 -1000 -1000 
-1000 -1000 -1000 -1000 -1000 -1000 -1000 -1000 -1000 
-1000 -1000 -1000 -1000 -1000 -1000 -1000 -1000 -1000 
-1000 -1000 -1000 -1000 -1000 -1000 -1000 -1000 -1000 
-1000 -1000 -1000 -1000 -1000 -1000 -1000 -1000 -1000 
-1000 -1000 -1000 -1000 -1000 -1000 -1000 -1000 -1000 
-1000 -1000 -1000 -1000 -1000 -1000 -1000 -1000 -1000 
-1000 -1000 -1000 -1000 -1000 -1000 -1000 -1000 -1000 
-1000 -1000 -1000 -1000 -1000 -1000 -1000 -1000 -1000 
-1000 -1000 -1000 -1000 -1000 -1000 -1000 -1000 -1000 
-1000 -1000 -1000 -1000 -1000 -1000 -1000 -1000 -1000 
-1000 -1000 -1000 -1000 -1000 -1000 -1000 -1000 -1000 
-1000 -1000 -1000 -1000 -1000 -1000 -1000 -1000 -1000 
-1000 -1000 -1000 -1000 -1000 -1000 -1000 -1000 -1000 
-1000 -1000 -1000 -1000 -1000 -1000 -1000 -1000 -1000 
-1000 -1000 -1000 -1000 -1000 -1000 -1000 -1000 -1000 
-1000 -1000 -1000 -1000 -1000 -1000 -1000 -1000 -1000 
-1000 -1000 -1000 -1000 -1000 -1000 -1000 -1000 -1000 
-1000 -1000 -1000 -1000 -1000 -1000 -1000 -1000 -1000 
-1000 -1000 -1000 -1000 -1000 -1000 -1000 -1000 -1000 
-1000 -1000 -1000 -1000 -1000 -1000 -1000 -1000 -1000 
-1000 -1000 -1000 -1000 -1000 -1000 -1000 -1000 -1000 
-1000 -1000 -1000 -1000 -1000 -1000 -1000 -1000 -1000 
-1000 -1000 -1000 -1000 -1000 -1000 -1000 -1000 -1000 
-1000 -1000 -1000 -1000 -1000 -1000 -1000 -1000 -1000 
-1000 -1000 -1000 -1000 -1000 -1000 -1000 -1000 -1000 
-1000 -1000 -1000 -1000 -1000 -1000 -1000 -1000 -1000 
-1000 -1000 -1000 -1000 -1000 -1000 -1000 -1000 -1000 
-1000 -1000 -1000 -1000 -1000 -1000 -1000 -1000 -1000 
-1000 -1000 -1000 -1000 -1000 -1000 -1000 -1000 -1000 
-1000 -1000 -1000 -1000 -1000 -1000 -1000 -1000 -1000 
-1000 -1000 -1000 -1000 -1000 -1000 -1000 -1000 -1000 
-1000 -1000 -1000 -1000 -1000 -1000 -1000 -1000 -1000 
-1000 -1000 -1000 -1000 -1000 -1000 -1000 -1000 -1000 
-1000 -1000 -1000 -1000 -1000 -1000 -1000 -1000 -1000 
-1000 -1000 -1000 -1000 -1000 -1000 -1000 -1000 -1000 
-1000 -1000 -1000 -1000 -1000 -1000 -1000 -1000 -1000 
-1000 -1000 -1000 -1000 -1000 -1000 -1000 -1000 -1000 
-1000 -1000 -1000 -1000 -1000 -1000 -1000 -1000 -1000 
-1000 -1000 -1000 -1000 -1000 -1000 -1000 -1000 -1000 
-1000 -1000 -1000 -1000 -1000 -1000 -1000 -1000 -1000 
-1000 -1000 -1000 -1000 -1000 -1000 -1000 -1000 -1000 
-1000 -1000 -1000 -1000 -1000 -1000 -1000 -1000 -1000 
-1000 -1000 -1000 -1000 -1000 -1000 -1000 -1000 -1000 
-1000 -1000 -1000 -1000 -1000 -1000 -1000 -1000 -1000 
-1000 -1000 -1000 -1000 -1000 -1000 -1000 -1000 -1000 
-1000 -1000 -1000 -1000 -1000 -1000 -1000 -1000 -1000 
-1000 -1000 -1000 -1000 -1000 -1000 -1000 -1000 -1000 
-1000 -1000 -1000 -1000 -1000 -1000 -1000 -1000 -1000 
-1000 -1000 -1000 -1000 -1000 -1000 -1000 -1000 -1000 
-1000 -1000 -1000 -1000 -1000 -1000 -1000 -1000 -1000 
-1000 -1000 -1000 -1000 -1000 -1000 -1000 -1000 -1000 
-1000 -1000 -1000 -1000 -1000 -1000 -1000 -1000 -1000 
-1000 -1000 -1000 -1000 -1000 -1000 -1000 -1000 -1000 
-1000 -1000 -1000 -1000 -1000 -1000 -1000 -1000 -1000 
-1000 -1000 -1000 -1000 -1000 -1000 -1000 -1000 -1000 
-1000 -1000 -1000 -1000 -1000 -1000 -1000 -1000 -1000 
-1000 -1000 -1000 -1000 -1000 -1000 -1000 -1000 -1000 
-1000 -1000 -1000 -1000 -1000 -1000 -1000 -1000 -1000 
-1000 -1000 -1000 -1000 -1000 -1000 -1000 -1000 -1000 
-1000 -1000 -1000 -1000 -1000 -1000 -1000 -1000 -1000 
-1000 -1000 -1000 -1000 -1000 -1000 -1000 -1000 -1000 
-1000 -1000 -1000 -1000 -1000 -1000 -1000 -1000 -1000 
-1000 -1000 -1000 -1000 -1000 -1000 -1000 -1000 -1000 
-1000 -1000 -1000 -1000 -1000 -1000 -1000 -1000 -1000 
-1000 -1000 -1000 -1000 -1000 -1000 -1000 -1000 -1000 
-1000 -1000 -1000 -1000 -1000 -1000 -1000 -1000 -1000 
-1000 -1000 -1000 -1000 -1000 -1000 -1000 -1000 -1000 
-1000 -1000 -1000 -1000 -1000 -1000 -1000 -1000 -1000 
-1000 -1000 -1000 -1000 -1000 -1000 -1000 -1000 -1000 
-1000 -1000 -1000 -1000 -1000 -1000 -1000 -1000 -1000 
-1000 -1000 -1000 -1000 -1000 -1000 -1000 -1000 -1000 
-1000 -1000 -1000 -1000 -1000 -1000 -1000 -1000 -1000 
-1000 -1000 -1000 -1000 -1000 -1000 -1000 -1000 -1000 
-1000 -1000 -1000 -1000 -1000 -1000 -1000 -1000 -1000 
-1000 -1000 -1000 -1000 -1000 -1000 -1000 -1000 -1000 
-1000 -1000 -1000 -1000 -1000 -1000 -1000 -1000 -1000 
-1000 -1000 -1000 -1000 -1000 -1000 -1000 -1000 -1000 
-1000 -1000 -1000 -1000 -1000 -1000 -1000 -1000 -1000 
-1000 -1000 -1000 -1000 -1000 -1000 -1000 -1000 -1000 
-1000 -1000 -1000 -1000 -1000 -1000 -1000 -1000 -1000 
-1000 -1000 -1000 -1000 -1000 -1000 -1000 -1000 -1000 
-1000 -1000 -1000 -1000 -1000 -1000 -1000 -1000 -1000 
-1000 -1000 -1000 -1000 -1000 -1000 -1000 -1000 -1000 
-1000 -1000 -1000 -1000 -1000 -1000 -1000 -1000 -1000 
-1000 -1000 -1000 -1000 -1000 -1000 -1000 -1000 -1000 
-1000 -1000 -1000 -1000 -1000 -1000 -1000 -1000 -1000 
-1000 -1000 -1000 -1000 -1000 -1000 -1000 -1000 -1000 
-1000 -1000 -1000 -1000 -1000 -1000 -1000 -1000 -1000 
-1000 -1000 -1000 -1000 -1000 -1000 -1000 -1000 -1000 
-1000 -1000 -1000 -1000 -1000 -1000 -1000 -1000 -1000 
-1000 -1000 -1000 -1000 -1000 -1000 -1000 -1000 -1000 
-1000 -1000 -1000 -1000 -1000 -1000 -1000 -1000 -1000 
-1000 -1000 -1000 -1000 -1000 -1000 -1000 -1000 -1000 
-1000 -1000 -1000 -1000 -1000 -1000 -1000 -1000 -1000 
-1000 -1000 -1000 -1000 -1000 -1000 -1000 -1000 -1000 
-1000 -1000 -1000 -1000 -1000 -1000 -1000 -1000 -1000 
-1000 -1000 -1000 -1000 -1000 -1000 -1000 -1000 -1000 
-1000 -1000 -1000 -1000 -1000 -1000 -1000 -1000 -1000 
-1000 -1000 -1000 -1000 -1000 -1000 -1000 -1000 -1000 
-1000 -1000 -1000 -1000 -1000 -1000 -1000 -1000 -1000 
-1000 -1000 -1000 -1000 -1000 -1000 -1000 -1000 -1000 
-1000 -1000 -1000 -1000 -1000 -1000 -1000 -1000 -1000 
-1000 -1000 -1000 -1000 -1000 -1000 -1000 -1000 -1000 
-1000 -1000 -1000 -1000 -1000 -1000 -1000 -1000 -1000 
-1000 -1000 -1000 -1000 -1000 -1000 -1000 -1000 -1000 
-1000 -1000 -1000 -1000 -1000 -1000 -1000 -1000 -1000 
-1000 -1000 -1000 -1000 -1000 -1000 -1000 -1000 -1000 
-1000 -1000 -1000 -1000 -1000 -1000 -1000 -1000 -1000 
-1000 -1000 -1000 -1000 -1000 -1000 -1000 -1000 -1000 
-1000 -1000 -1000 -1000 -1000 -1000 -1000 -1000 -1000 
-1000 -1000 -1000 -1000 -1000 -1000 -1000 -1000 -1000 
-1000 -1000 -1000 -1000 -1000 -1000 -1000 -1000 -1000 
-1000 -1000 -1000 -1000 -1000 -1000 -1000 -1000 -1000 
-1000 -1000 -1000 -1000 -1000 -1000 -1000 -1000 -1000 
-1000 -1000 -1000 -1000 -1000 -1000 -1000 -1000 -1000 
-1000 -1000 -1000 -1000 -1000 -1000 -1000 -1000 -1000 
-1000 -1000 -1000 -1000 -1000 -1000 -1000 -1000 -1000 
-1000 -1000 -1000 -1000 -1000 -1000 -1000 -1000 -1000 
-1000 -1000 -1000 -1000 -1000 -1000 -1000 -1000 -1000 
-1000 -1000 -1000 -1000 -1000 -1000 -1000 -1000 -1000 
-1000 -1000 -1000 -1000 -1000 -1000 -1000 -1000 -1000 
-1000 -1000 -1000 -1000 -1000 -1000 -1000 -1000 -1000 
-1000 -1000 -1000 -1000 -1000 -1000 -1000 -1000 -1000 
-1000 -1000 -1000 -1000 -1000 -1000 -1000 -1000 -1000 
-1000 -1000 -1000 -1000 -1000 -1000 -1000 -1000 -1000 
-1000 -1000 -1000 -1000 -1000 -1000 -1000 -1000 -1000 
-1000 -1000 -1000 -1000 -1000 -1000 -1000 -1000 -1000 
-1000 -1000 -1000 -1000 -1000 -1000 -1000 -1000 -1000 
-1000 -1000 -1000 -1000 -1000 -1000 -1000 -1000 -1000 
-1000 -1000 -1000 -1000 -1000 -1000 -1000 -1000 -1000 
-1000 -1000 -1000 -1000 -1000 -1000 -1000 -1000 -1000 
-1000 -1000 -1000 -1000 -1000 -1000 -1000 -1000 -1000 
-1000 -1000 -1000 -1000 -1000 -1000 -1000 -1000 -1000 
-1000 -1000 -1000 -1000 -1000 -1000 -1000 -1000 -1000 
-1000 -1000 -1000 -1000 -1000 -1000 -1000 -1000 -1000 
-1000 -1000 -1000 -1000 -1000 -1000 -1000 -1000 -1000 
-1000 -1000 -1000 -1000 -1000 -1000 -1000 -1000 -1000 
-1000 -1000 -1000 -1000 -1000 -1000 -1000 -1000 -1000 
-1000 -1000 -1000 -1000 -1000 -1000 -1000 -1000 -1000 
-1000 -1000 -1000 -1000 -1000 -1000 -1000 -1000 -1000 
-1000 -1000 -1000 -1000 -1000 -1000 -1000 -1000 -1000 
-1000 -1000 -1000 -1000 -1000 -1000 -1000 -1000 -1000 
-1000 -1000 -1000 -1000 -1000 -1000 -1000 -1000 -1000 
-1000 -1000 -1000 -1000 -1000 -1000 -1000 -1000 -1000 
-1000 -1000 -1000 -1000 -1000 -1000 -1000 -1000 -1000 
-1000 -1000 -1000 -1000 -1000 -1000 -1000 -1000 -1000 
-1000 -1000 -1000 -1000 -1000 -1000 -1000 -1000 -1000 
-1000 -1000 -1000 -1000 -1000 -1000 -1000 -1000 -1000 
-1000 -1000 -1000 -1000 -1000 -1000 -1000 -1000 -1000 
-1000 -1000 -1000 -1000 -1000 -1000 -1000 -1000 -1000 
-1000 -1000 -1000 -1000 -1000 -1000 -1000 -1000 -1000 
-1000 -1000 -1000 -1000 -1000 -1000 -1000 -1000 -1000 
-1000 -1000 -1000 -1000 -1000 -1000 -1000 -1000 -1000 
-1000 -1000 -1000 -1000 -1000 -1000 -1000 -1000 -1000 
-1000 -1000 -1000 -1000 -1000 -1000 -1000 -1000 -1000 
-1000 -1000 -1000 -1000 -1000 -1000 -1000 -1000 -1000 
-1000 -1000 -1000 -1000 -1000 -1000 -1000 -1000 -1000 
-1000 -1000 -1000 -1000 -1000 -1000 -1000 -1000 -1000 
-1000 -1000 -1000 -1000 -1000 -1000 -1000 -1000 -1000 
-1000 -1000 -1000 -1000 -1000 -1000 -1000 -1000 -1000 
-1000 -1000 -1000 -1000 -1000 -1000 -1000 -1000 -1000 
-1000 -1000 -1000 -1000 -1000 -1000 -1000 -1000 -1000 
-1000 -1000 -1000 -1000 -1000 -1000 -1000 -1000 -1000 
-1000 -1000 -1000 -1000 -1000 -1000 -1000 -1000 -1000 
-1000 -1000 -1000 -1000 -1000 -1000 -1000 -1000 -1000 
-1000 -1000 -1000 -1000 -1000 -1000 -1000 -1000 -1000 
-1000 -1000 -1000 -1000 -1000 -1000 -1000 -1000 -1000 
-1000 -1000 -1000 -1000 -1000 -1000 -1000 -1000 -1000 
-1000 -1000 -1000 -1000 -1000 -1000 -1000 -1000 -1000 
-1000 -1000 -1000 -1000 -1000 -1000 -1000 -1000 -1000 
-1000 -1000 -1000 -1000 -1000 -1000 -1000 -1000 -1000 
-1000 -1000 -1000 -1000 -1000 -1000 -1000 -1000 -1000 
-1000 -1000 -1000 -1000 -1000 -1000 -1000 -1000 -1000 
-1000 -1000 -1000 -1000 -1000 -1000 -1000 -1000 -1000 
-1000 -1000 -1000 -1000 -1000 -1000 -1000 -1000 -1000 
-1000 -1000 -1000 -1000 -1000 -1000 -1000 -1000 -1000 
-1000 -1000 -1000 -1000 -1000 -1000 -1000 -1000 -1000 
-1000 -1000 -1000 -1000 -1000 -1000 -1000 -1000 -1000 
-1000 -1000 -1000 -1000 -1000 -1000 -1000 -1000 -1000 
-1000 -1000 -1000 -1000 -1000 -1000 -1000 -1000 -1000 
-1000 -1000 -1000 -1000 -1000 -1000 -1000 -1000 -1000 
-1000 -1000 -1000 -1000 -1000 -1000 -1000 -1000 -1000 
-1000 -1000 -1000 -1000 -1000 -1000 -1000 -1000 -1000 
-1000 -1000 -1000 -1000 -1000 -1000 -1000 -1000 -1000 
-1000 -1000 -1000 -1000 -1000 -1000 -1000 -1000 -1000 
-1000 -1000 -1000 -1000 -1000 -1000 -1000 -1000 -1000 
-1000 -1000 -1000 -1000 -1000 -1000 -1000 -1000 -1000 
-1000 -1000 -1000 -1000 -1000 -1000 -1000 -1000 -1000 
-1000 -1000 -1000 -1000 -1000 -1000 -1000 -1000 -1000 
-1000 -1000 -1000 -1000 -1000 -1000 -1000 -1000 -1000 
-1000 -1000 -1000 -1000 -1000 -1000 -1000 -1000 -1000 
-1000 -1000 -1000 -1000 -1000 -1000 -1000 -1000 -1000 
-1000 -1000 -1000 -1000 -1000 -1000 -1000 -1000 -1000 
-1000 -1000 -1000 -1000 -1000 -1000 -1000 -1000 -1000 
-1000 -1000 -1000 -1000 -1000 -1000 -1000 -1000 -1000 
-1000 -1000 -1000 -1000 -1000 -1000 -1000 -1000 -1000 
-1000 -1000 -1000 -1000 -1000 -1000 -1000 -1000 -1000 
-1000 -1000 -1000 -1000 -1000 -1000 -1000 -1000 -1000 
-1000 -1000 -1000 -1000 -1000 -1000 -1000 -1000 -1000 
-1000 -1000 -1000 -1000 -1000 -1000 -1000 -1000 -1000 
-1000 -1000 -1000 -1000 -1000 -1000 -1000 -1000 -1000 
-1000 -1000 -1000 -1000 -1000 -1000 -1000 -1000 -1000 
-1000 -1000 -1000 -1000 -1000 -1000 -1000 -1000 -1000 
-1000 -1000 -1000 -1000 -1000 -1000 -1000 -1000 -1000 
-1000 -1000 -1000 -1000 -1000 -1000 -1000 -1000 -1000 
-1000 -1000 -1000 -1000 -1000 -1000 -1000 -1000 -1000 
-1000 -1000 -1000 -1000 -1000 -1000 -1000 -1000 -1000 
-1000 -1000 -1000 -1000 -1000 -1000 -1000 -1000 -1000 
-1000 -1000 -1000 -1000 -1000 -1000 -1000 -1000 -1000 
-1000 -1000 -1000 -1000 -1000 -1000 -1000 -1000 -1000 
-1000 -1000 -1000 -1000 -1000 -1000 -1000 -1000 -1000 
-1000 -1000 -1000 -1000 -1000 -1000 -1000 -1000 -1000 
-1000 -1000 -1000 -1000 -1000 -1000 -1000 -1000 -1000 
-1000 -1000 -1000 -1000 -1000 -1000 -1000 -1000 -1000 
-1000 -1000 -1000 -1000 -1000 -1000 -1000 -1000 -1000 
-1000 -1000 -1000 -1000 -1000 -1000 -1000 -1000 -1000 
-1000 -1000 -1000 -1000 -1000 -1000 -1000 -1000 -1000 
-1000 -1000 -1000 -1000 -1000 -1000 -1000 -1000 -1000 
-1000 -1000 -1000 -1000 -1000 -1000 -1000 -1000 -1000 
-1000 -1000 -1000 -1000 -1000 -1000 -1000 -1000 -1000 
-1000 -1000 -1000 -1000 -1000 -1000 -1000 -1000 -1000 
-1000 -1000 -1000 -1000 -1000 -1000 -1000 -1000 -1000 
-1000 -1000 -1000 -1000 -1000 -1000 -1000 -1000 -1000 
-1000 -1000 -1000 -1000 -1000 -1000 -1000 -1000 -1000 
-1000 -1000 -1000 -1000 -1000 -1000 -1000 -1000 -1000 
-1000 -1000 -1000 -1000 -1000 -1000 -1000 -1000 -1000 