# vtk DataFile Version 3.0
vtk output
ASCII
DATASET POLYDATA
POINTS 13638 float
-93.6157 -29.0618 -80.5611 -93.7881 -28.8703 -80.5729 -93.7891 -28.9041 -80.5415 
-93.7907 -28.8665 -80.5731 -94.4601 -28.0189 -80.6234 -94.4634 -28.0607 -80.4604 
-94.8231 -27.4229 -80.6569 -95.538 -25.8046 -80.7429 -95.5704 -25.6076 -80.7524 
-95.5756 -25.7785 -80.5545 -95.2766 -26.5032 -80.7066 -78.9467 -33.328 -80.105 
-79.2331 -33.4058 -80.1066 -79.3362 -33.4829 -79.9207 -79.8787 -33.4497 -80.1162 
-80.0835 -33.4564 -80.1196 -80.9594 -33.4539 -80.1355 -81.0861 -33.5648 -79.7316 
-81.4623 -33.4922 -80.1427 -81.7571 -33.5856 -79.8878 -81.7088 -33.5173 -80.146 
-82.514 -33.6425 -80.1548 -82.7996 -33.6632 -80.159 -82.7581 -33.7421 -79.8801 
-83.6166 -33.729 -80.1707 -83.8386 -33.8652 -79.7314 -84.5198 -33.7023 -80.1881 
-84.8508 -33.6822 -80.195 -85.1041 -33.7394 -80.0089 -84.7821 -33.9641 -79.3243 
-84.1734 -33.7111 -80.1815 -85.6216 -33.8351 -79.5421 -85.1768 -33.664 -80.2016 
-87.1313 -33.364 -80.2503 -87.204 -33.3863 -80.1589 -86.5323 -33.5053 -80.2331 
-86.4376 -33.6302 -79.8515 -86.0789 -33.5588 -80.2226 -85.5604 -33.6355 -80.2098 
-87.2285 -33.5595 -79.2206 -87.2105 -33.3435 -80.2526 -87.4835 -33.2325 -80.2625 
-87.9997 -33.0255 -80.2812 -88.1433 -32.9708 -80.2862 -88.4682 -33.0958 -79.2399 
-89.3402 -32.4124 -80.3329 -89.5826 -32.2959 -80.3426 -89.9559 -32.217 -80.0737 
-89.3612 -32.6462 -79.5586 -89.2115 -32.4649 -80.3282 -89.9857 -32.4003 -79.2064 
-90.057 -32.0618 -80.3616 -90.8365 -31.6021 -80.3964 -90.8507 -31.5941 -80.397 
-90.8557 -31.5905 -80.3973 -91.0762 -31.5957 -79.3246 -91.9433 -30.7582 -80.4544 
-91.9683 -30.735 -80.4559 -92.0701 -30.6777 -79.4274 -92.9199 -29.8314 -80.5139 
-92.931 -29.8192 -80.5146 -92.9877 -29.7139 -79.5126 -93.8488 -28.7486 -79.5646 
-94.6475 -27.7451 -79.6239 -95.0511 -27.0429 -80.6782 -95.1125 -26.9426 -80.6838 
-95.3318 -26.6334 -79.6014 -95.7682 -24.5666 -80.3492 -95.7844 -25.4775 -79.4409 
-95.6911 -24.6639 -80.7972 -95.6301 -23.4092 -80.8528 -95.4693 -22.5495 -80.8888 
-95.7431 -23.4099 -80.135 -95.6693 -24.0621 -80.824 -94.6675 -20.4703 -80.9684 
-94.5893 -20.2792 -80.9757 -94.6792 -20.4968 -80.7628 -95.1078 -21.4467 -80.9322 
-95.0743 -21.3667 -80.9352 -95.1152 -21.4835 -80.8289 -95.2462 -21.8509 -80.9164 
-74.3687 -30.8639 -80.1343 -74.7718 -30.9946 -80.1356 -74.8692 -31.0891 -80.014 
-74.8969 -31.0483 -80.1354 -76.0156 -31.6269 -80.1293 -76.1649 -31.7384 -80.127 
-76.1615 -31.7436 -79.9334 -75.8065 -31.4946 -80.1316 -76.8484 -32.2132 -80.1178 
-77.2897 -32.5198 -80.1118 -77.2462 -32.4819 -79.5666 -77.6928 -32.7827 -80.1072 
-78.4136 -33.1514 -80.1034 -78.3269 -33.1699 -79.2214 -79.7566 -33.6435 -79.4799 
-79.402 -33.658 -79.0351 -78.6137 -33.2411 -80.103 -80.2438 -33.8542 -78.869 
-79.982 -33.458 -80.1177 -81.6986 -33.7473 -79.1201 -81.1237 -33.9055 -78.7194 
-80.0229 -33.4597 -80.1184 -80.0023 -33.4596 -80.118 -81.9931 -33.9848 -78.4252 
-82.5847 -33.9509 -78.7477 -84.228 -34.0926 -78.9661 -83.6283 -34.0908 -78.7773 
-84.6328 -34.253 -78.2062 -86.2701 -33.8779 -79.0075 -85.5699 -34.0988 -78.571 
-86.4608 -34.01 -78.1601 -87.583 -33.6931 -77.9807 -88.5466 -33.2999 -78.3038 
-89.1123 -32.9437 -78.8678 -89.2381 -33.0159 -78.1375 -90.1812 -32.3932 -78.1613 
-91.1771 -31.5344 -78.2617 -92.1149 -30.5893 -78.3726 -93.0216 -29.609 -78.4802 
-93.9086 -28.6045 -78.5622 -94.7531 -27.5477 -78.5748 -95.5153 -26.358 -78.4209 
-95.9862 -24.3183 -79.0007 -95.9526 -25.3003 -78.5644 -95.5667 -22.4236 -79.9535 
-95.8571 -23.2045 -79.2828 -95.4412 -22.4155 -80.8944 -94.3035 -19.5795 -80.6776 
-94.743 -20.368 -79.7772 -94.2838 -19.5573 -81.0028 -95.2682 -21.4891 -79.6029 
-94.0105 -18.6867 -81.0373 -93.8039 -17.9497 -81.0669 -94.0881 -18.729 -80.3025 
-94.1674 -19.1984 -81.017 -93.5214 -16.8749 -81.1104 -93.4813 -16.7171 -81.1168 
-93.5212 -16.8954 -80.9567 -93.6183 -17.2715 -81.0942 -71.7387 -29.6101 -80.1438 
-71.8523 -29.6743 -80.1429 -71.862 -29.6987 -80.0008 -71.4473 -29.4138 -80.1474 
-72.5339 -30.0781 -80.1369 -72.9445 -30.2541 -80.1363 -72.8911 -30.316 -79.6333 
-73.4152 -30.492 -80.134 -74.1105 -30.7716 -80.1338 -73.9461 -30.9014 -79.2579 
-75.6074 -31.5308 -79.4956 -75.0413 -31.4484 -78.9598 -74.1675 -30.7968 -80.1337 
-76.3565 -31.9786 -78.9942 -76.1049 -32.0378 -78.4118 -76.8185 -32.3748 -78.2442 
-75.2834 -31.2105 -80.135 -77.0648 -32.3848 -78.7705 -78.1589 -33.099 -78.1559 
-79.2987 -33.7325 -77.889 -80.7514 -34.0947 -78.2102 -80.3638 -34.1372 -77.7822 
-81.2371 -34.2942 -77.6156 -82.6043 -34.2028 -77.8219 -81.9477 -34.2478 -77.6994 
-82.7592 -34.5011 -76.8095 -83.7001 -34.3669 -77.4628 -84.8337 -34.4579 -77.1914 
-85.5844 -34.3125 -77.5577 -86.4419 -34.2323 -76.9223 -87.5093 -33.9431 -76.7457 
-88.3755 -33.5178 -77.4314 -89.1652 -33.1803 -76.9981 -90.266 -32.3831 -77.0638 
-91.2475 -31.505 -77.1537 -92.1976 -30.552 -77.2979 -93.1181 -29.5501 -77.4593 
-94.0056 -28.5296 -77.5471 -94.8366 -27.4911 -77.5298 -95.4498 -26.6053 -77.3587 
-96.0776 -24.8733 -78.2273 -95.9199 -25.5356 -77.6632 -95.7321 -22.5341 -79.0845 
-95.9721 -23.3123 -78.4302 -96.0986 -24.3583 -77.7033 -94.4395 -19.6149 -79.8424 
-94.7407 -20.0931 -79.1205 -95.1973 -21.0399 -78.5112 -95.7041 -22.2593 -78.3568 
-93.8232 -17.7412 -80.1662 -94.1759 -18.459 -79.3098 -93.7496 -17.7607 -81.0745 
-94.4695 -19.3336 -79.1745 -93.3175 -16.0133 -80.6559 -93.6482 -16.9049 -79.7179 
-93.3084 -16.0185 -81.1453 -92.9029 -14.4293 -81.2099 -92.8857 -14.3822 -81.1784 
-93.1001 -15.1799 -81.1795 -93.1297 -15.1399 -80.3627 -92.8881 -14.3697 -81.2123 
-93.178 -15.5071 -81.1661 -92.6459 -13.5576 -81.2447 -92.5433 -13.2691 -81.2559 
-92.6416 -13.5405 -80.9336 -92.881 -14.3454 -81.2133 -69.5485 -28.0731 -80.1739 
-69.8128 -28.2579 -80.1703 -69.8106 -28.2287 -79.8371 -68.895 -27.6266 -80.1824 
-70.2697 -28.582 -80.1639 -70.8259 -28.98 -80.1559 -70.8072 -28.8889 -79.4184 
-70.9943 -29.1011 -80.1534 -71.8048 -29.5577 -78.9971 -72.805 -30.2149 -78.5943 
-73.8131 -30.8521 -78.2105 -74.8464 -31.4802 -77.8428 -75.9057 -32.1129 -77.4795 
-77.5685 -32.8582 -77.7264 -76.9988 -32.7235 -77.2017 -78.3535 -33.3426 -77.1864 
-78.0604 -33.3502 -76.6614 -78.7838 -33.6893 -76.4425 -79.2207 -33.7925 -76.8046 
-80.3044 -34.2799 -76.6125 -81.8935 -34.5055 -76.9229 -81.2489 -34.5268 -76.6604 
-82.1715 -34.7125 -76.0459 -83.0729 -34.792 -75.6519 -83.7805 -34.6632 -76.1233 
-85.4551 -34.4922 -76.7153 -84.6885 -34.6104 -76.3777 -85.6178 -34.5967 -75.8863 
-86.7325 -34.356 -75.6675 -87.6676 -34.0218 -75.9787 -88.2203 -33.7208 -76.5827 
-88.3792 -33.7374 -75.8564 -89.3358 -33.1616 -75.8695 -90.3534 -32.4079 -75.9215 
-91.3997 -31.5764 -75.9424 -92.4523 -30.5215 -76.3227 -93.3549 -29.5184 -76.5108 
-94.2201 -28.4863 -76.5948 -95.0262 -27.433 -76.5799 -95.7348 -26.2428 -76.5067 
-96.0683 -25.1165 -76.8259 -96.0032 -23.1954 -77.3973 -96.1576 -24.1887 -76.5275 
-94.8569 -20.0923 -78.2104 -95.2674 -20.9951 -77.2132 -95.6893 -22.0658 -77.298 
-93.9759 -17.7576 -79.3102 -94.2347 -18.2098 -78.6307 -94.5333 -19.0593 -78.15 
-93.3759 -15.9186 -79.5132 -93.685 -16.6595 -78.569 -94.0128 -17.5155 -78.6075 
-92.9373 -14.2917 -80.0572 -93.1854 -15.0433 -79.2239 -92.3166 -12.686 -80.7615 
-92.659 -13.432 -79.8167 -92.337 -12.7303 -81.2765 -91.573 -10.4445 -81.3662 
-91.5536 -10.3254 -81.3221 -91.6803 -11.1387 -81.3367 -91.6799 -11.0612 -80.5866 
-91.5582 -10.3429 -81.3705 -91.9818 -11.901 -81.3077 -91.7627 -11.3618 -81.3281 
-91.9586 -11.8303 -80.6523 -92.1415 -12.2786 -81.2934 -91.5587 -10.3059 -81.3722 
-91.589 -9.48735 -81.4097 -91.5848 -9.4669 -81.3777 -91.6187 -8.77635 -81.4424 
-91.6067 -7.9931 -81.4776 -91.6174 -8.72421 -80.9097 -91.5899 -9.45354 -81.4113 
-91.5269 -7.13479 -81.515 -91.3902 -6.54234 -81.5393 -91.5525 -7.05237 -81.0256 
-91.6042 -7.93042 -81.4804 -90.5263 -4.56314 -81.6133 -90.3575 -4.23948 -81.6249 
-90.5542 -4.52586 -81.273 -90.9799 -5.42395 -81.5825 -90.9402 -5.35076 -81.5851 
-90.9713 -5.38572 -81.494 -91.0738 -5.655 -81.5737 -88.4189 -1.34403 -81.721 
-88.3624 -1.26121 -81.7237 -88.3917 -1.30376 -81.6248 -88.6696 -1.672 -81.7107 
-86.0493 1.78498 -81.8199 -86.0386 1.79948 -81.8204 -85.9957 1.80871 -81.7948 
-86.0931 1.73165 -81.8183 -66.6337 -26.1689 -80.2077 -66.8016 -26.2744 -80.206 
-66.798 -26.2676 -80.0191 -66.1282 -25.8487 -80.2131 -67.3604 -26.6298 -80.1999 
-67.7905 -26.9034 -80.1953 -67.7672 -26.8545 -79.6674 -68.093 -27.0992 -80.1918 
-68.7994 -27.5617 -80.1836 -68.7543 -27.461 -79.2826 -68.8266 -27.5799 -80.1833 
-69.7513 -28.0893 -78.8707 -70.7517 -28.7385 -78.4424 -71.7493 -29.4019 -78.0132 
-72.7367 -30.0673 -77.6015 -73.6985 -30.7108 -77.2335 -74.6666 -31.3554 -76.8409 
-75.7138 -32.0546 -76.4283 -76.8 -32.7631 -76.0889 -77.859 -33.4164 -75.766 
-79.3815 -34.0223 -75.9027 -78.9072 -33.9464 -75.5226 -79.7435 -34.3192 -75.1609 
-55.1544 -18.1192 -80.3656 -55.3339 -18.3626 -80.3579 -55.3018 -18.3991 -80.1782 
-55.4372 -18.484 -80.3542 -55.6928 -18.761 -80.3463 -80.2364 -34.406 -75.505 
-81.424 -34.7741 -75.402 -82.5209 -34.99 -75.0017 -53.8654 -15.7288 -80.4506 
-53.9637 -15.9514 -80.4423 -53.8947 -15.978 -80.2863 -54.0118 -16.0645 -80.438 
-54.4466 -17.004 -80.4034 -54.4277 -17.0371 -80.3564 -54.4755 -17.0658 -80.4011 
-54.5535 -17.1995 -80.3964 -83.3592 -35.1107 -74.5946 -83.7862 -34.8825 -75.267 
-84.1074 -35.0647 -74.6494 -52.6301 -12.8047 -80.5606 -52.8683 -13.5349 -80.5319 
-52.6584 -13.4256 -79.9685 -53.2557 -14.4069 -80.4994 -53.2983 -14.5009 -80.4959 
-53.2685 -14.5137 -80.4362 -53.3258 -14.5477 -80.4943 -53.4028 -14.7034 -80.4886 
-84.6245 -34.8423 -75.2882 -85.6229 -34.8345 -74.6348 -52.4952 -12.0853 -80.5907 
-52.3786 -12.1807 -80.1817 -52.4547 -11.6819 -80.6082 -52.2953 -11.3365 -80.2334 
-52.4071 -11.2855 -80.6253 -52.6266 -12.7901 -80.5612 -86.6605 -34.5768 -74.4792 
-52.29 -10.4397 -80.6614 -52.0468 -10.2872 -79.7323 -52.2029 -9.90609 -80.684 
[...]
POINT_DATA 13638
SCALARS scalars float
LOOKUP_TABLE default
-1000 -1000 -1000 -1000 -1000 -1000 -1000 -1000 -1000 
-1000 -1000 -1000 -1000 -1000 -1000 -1000 -1000 -1000 
-1000 -1000 -1000 -1000 -1000 -1000 -1000 -1000 -1000 
-1000 -1000 -1000 -1000 -1000 -1000 -1000 -1000 -1000 
-1000 -1000 -1000 -1000 -1000 -1000 -1000 -1000 -1000 
-1000 -1000 -1000 -1000 -1000 -1000 -1000 -1000 -1000 
-1000 -1000 -1000 -1000 -1000 -1000 -1000 -1000 -1000 
-1000 -1000 -1000 -1000 -1000 -1000 -1000 -1000 -1000 
-1000 -1000 -1000 -1000 -1000 -1000 -1000 -1000 -1000 
-1000 -1000 -1000 -1000 -1000 -1000 -1000 -1000 -1000 
-1000 -1000 -1000 -1000 -1000 -1000 -1000 -1000 -1000 
-1000 -1000 -1000 -1000 -1000 -1000 -1000 -1000 -1000 
-1000 -1000 -1000 -1000 -1000 -1000 -1000 -1000 -1000 
-1000 -1000 -1000 -1000 -1000 -1000 -1000 -1000 -1000 
-1000 -1000 -1000 -1000 -1000 -1000 -1000 -1000 -1000 
-1000 -1000 -1000 -1000 -1000 -1000 -1000 -1000 -1000 
-1000 -1000 -1000 -1000 -1000 -1000 -1000 -1000 -1000 
-1000 -1000 -1000 -1000 -1000 -1000 -1000 -1000 -1000 
-1000 -1000 -1000 -1000 -1000 -1000 -1000 -1000 -1000 
-1000 -1000 -1000 -1000 -1000 -1000 -1000 -1000 -1000 
-1000 -1000 -1000 -1000 -1000 -1000 -1000 -1000 -1000 
-1000 -1000 -1000 -1000 -1000 -1000 -1000 -1000 -1000 
-1000 -1000 -1000 -1000 -1000 -1000 -1000 -1000 -1000 
-1000 -1000 -1000 -1000 -1000 -1000 -1000 -1000 -1000 
-1000 -1000 -1000 -1000 -1000 -1000 -1000 -1000 -1000 
-1000 -1000 -1000 -1000 -1000 -1000 -1000 -1000 -1000 
-1000 -1000 -1000 -1000 -1000 -1000 -1000 -1000 -1000 
-1000 -1000 -1000 -1000 -1000 -1000 -1000 -1000 -1000 
-1000 -1000 -1000 -1000 -1000 -1000 -1000 -1000 -1000 
-1000 -1000 -1000 -1000 -1000 -1000 -1000 -1000 -1000 
-1000 -1000 -1000 -1000 -1000 -1000 -1000 -1000 -1000 
-1000 -1000 -1000 -1000 -1000 -1000 -1000 -1000 -1000 
-1000 -1000 -1000 -1000 -1000 -1000 -1000 -1000 -1000 
-1000 -1000 -1000 -1000 -1000 -1000 -1000 -1000 -1000 
-1000 -1000 -1000 -1000 -1000 -1000 -1000 -1000 -1000 
-1000 -1000 -1000 -1000 -1000 -1000 -1000 -1000 -1000 
-1000 -1000 -1000 -1000 -1000 -1000 -1000 -1000 -1000 
-1000 -1000 -1000 -1000 -1000 -1000 -1000 -1000 -1000 
-1000 -1000 -1000 -1000 -1000 -1000 -1000 -1000 -1000 
-1000 -1000 -1000 -1000 -1000 -1000 -1000 -1000 -1000 
-1000 -1000 -1000 -1000 -1000 -1000 -1000 -1000 -1000 
-1000 -1000 -1000 -1000 -1000 -1000 -1000 -1000 -1000 
-1000 -1000 -1000 -1000 -1000 -1000 -1000 -1000 -1000 
-1000 -1000 -1000 -1000 -1000 -1000 -1000 -1000 -1000 
-1000 -1000 -1000 -1000 -1000 -1000 -1000 -1000 -1000 
-1000 -1000 -1000 -1000 -1000 -1000 -1000 -1000 -1000 
-1000 -1000 -1000 -1000 -1000 -1000 -1000 -1000 -1000 
-1000 -1000 -1000 -1000 -1000 -1000 -1000 -1000 -1000 
-1000 -1000 -1000 -1000 -1000 -1000 -1000 -1000 -1000 
-1000 -1000 -1000 -1000 -1000 -1000 -1000 -1000 -1000 
-1000 -1000 -1000 -1000 -1000 -1000 -1000 -1000 -1000 
-1000 -1000 -1000 -1000 -1000 -1000 -1000 -1000 -1000 
-1000 -1000 -1000 -1000 -1000 -1000 -1000 -1000 -1000 
-1000 -1000 -1000 -1000 -1000 -1000 -1000 -1000 -1000 
-1000 -1000 -1000 -1000 -1000 -1000 -1000 -1000 -1000 
-1000 -1000 -1000 -1000 -1000 -1000 -1000 -1000 -1000 
-1000 -1000 -1000 -1000 -1000 -1000 -1000 -1000 -1000 
-1000 -1000 -1000 -1000 -1000 -1000 -1000 -1000 -1000 
-1000 -1000 -1000 -1000 -1000 -1000 -1000 -1000 -1000 
-1000 -1000 -1000 -1000 -1000 -1000 -1000 -1000 -1000 
-1000 -1000 -1000 -1000 -1000 -1000 -1000 -1000 -1000 
-1000 -1000 -1000 -1000 -1000 -1000 -1000 -1000 -1000 
-1000 -1000 -1000 -1000 -1000 -1000 -1000 -1000 -1000 
-1000 -1000 -1000 -1000 -1000 -1000 -1000 -1000 -1000 
-1000 -1000 -1000 -1000 -1000 -1000 -1000 -1000 -1000 
-1000 -1000 -1000 -1000 -1000 -1000 -1000 -1000 -1000 
-1000 -1000 -1000 -1000 -1000 -1000 -1000 -1000 -1000 
-1000 -1000 -1000 -1000 -1000 -1000 -1000 -1000 -1000 
-1000 -1000 -1000 -1000 -1000 -1000 -1000 -1000 -1000 
-1000 -1000 -1000 -1000 -1000 -1000 -1000 -1000 -1000 
-1000 -1000 -1000 -1000 -1000 -1000 -1000 -1000 -1000 
-1000 -1000 -1000 -1000 -1000 -1000 -1000 -1000 -1000 
-1000 -1000 -1000 -1000 -1000 -1000 -1000 -1000 -1000 
-1000 -1000 -1000 -1000 -1000 -1000 -1000 -1000 -1000 
-1000 -1000 -1000 -1000 -1000 -1000 -1000 -1000 -1000 
-1000 -1000 -1000 -1000 -1000 -1000 -1000 -1000 -1000 
-1000 -1000 -1000 -1000 -1000 -1000 -1000 -1000 -1000 
-1000 -1000 -1000 -1000 -1000 -1000 -1000 -1000 -1000 
-1000 -1000 -1000 -1000 -1000 -1000 -1000 -1000 -1000 
-1000 -1000 -1000 -1000 -1000 -1000 -1000 -1000 -1000 
-1000 -1000 -1000 -1000 -1000 -1000 -1000 -1000 -1000 
-1000 -1000 -1000 -1000 -1000 -1000 -1000 -1000 -1000 
-1000 -1000 -1000 -1000 -1000 -1000 -1000 -1000 -1000 
-1000 -1000 -1000 -1000 -1000 -1000 -1000 -1000 -1000 
-1000 -1000 -1000 -1000 -1000 -1000 -1000 -1000 -1000 
-1000 -1000 -1000 -1000 -1000 -1000 -1000 -1000 -1000 
-1000 -1000 -1000 -1000 -1000 -1000 -1000 -1000 -1000 
-1000 -1000 -1000 -1000 -1000 -1000 -1000 -1000 -1000 
-1000 -1000 -1000 -1000 -1000 -1000 -1000 -1000 -1000 
-1000 -1000 -1000 -1000 -1000 -1000 -1000 -1000 -1000 
-1000 -1000 -1000 -1000 -1000 -1000 -1000 -1000 -1000 
-1000 -1000 -1000 -1000 -1000 -1000 -1000 -1000 -1000 
-1000 -1000 -1000 -1000 -1000 -1000 -1000 -1000 -1000 
-1000 -1000 -1000 -1000 -1000 -1000 -1000 -1000 -1000 
-1000 -1000 -1000 -1000 -1000 -1000 -1000 -1000 -1000 
-1000 -1000 -1000 -1000 -1000 -1000 -1000 -1000 -1000 
-1000 -1000 -1000 -1000 -1000 -1000 -1000 -1000 -1000 
-1000 -1000 -1000 -1000 -1000 -1000 -1000 -1000 -1000 
-1000 -1000 -1000 -1000 -1000 -1000 -1000 -1000 -1000 
-1000 -1000 -1000 -1000 -1000 -1000 -1000 -1000 -1000 
-1000 -1000 -1000 -1000 -1000 -1000 -1000 -1000 -1000 
-1000 -1000 -1000 -1000 -1000 -1000 -1000 -1000 -1000 
-1000 -1000 -1000 -1000 -1000 -1000 -1000 -1000 -1000 
-1000 -1000 -1000 -1000 -1000 -1000 -1000 -1000 -1000 
-1000 -1000 -1000 -1000 -1000 -1000 -1000 -1000 -1000 
-1000 -1000 -1000 -1000 -1000 -1000 -1000 -1000 -1000 
-1000 -1000 -1000 -1000 -1000 -1000 -1000 -1000 -1000 
-1000 -1000 -1000 -1000 -1000 -1000 -1000 -1000 -1000 
-1000 -1000 -1000 -1000 -1000 -1000 -1000 -1000 -1000 
-1000 -1000 -1000 -1000 -1000 -1000 -1000 -1000 -1000 
-1000 -1000 -1000 -1000 -1000 -1000 -1000 -1000 -1000 
-1000 -1000 -1000 -1000 -1000 -1000 -1000 -1000 -1000 
-1000 -1000 -1000 -1000 -1000 -1000 -1000 -1000 -1000 
-1000 -1000 -1000 -1000 -1000 -1000 -1000 -1000 -1000 
-1000 -1000 -1000 -1000 -1000 -1000 -1000 -1000 -1000 
-1000 -1000 -1000 -1000 -1000 -1000 -1000 -1000 -1000 
-1000 -1000 -1000 -1000 -1000 -1000 -1000 -1000 -1000 
-1000 -1000 -1000 -1000 -1000 -1000 -1000 -1000 -1000 
-1000 -1000 -1000 -1000 -1000 -1000 -1000 -1000 -1000 
-1000 -1000 -1000 -1000 -1000 -1000 -1000 -1000 -1000 
-1000 -1000 -1000 -1000 -1000 -1000 -1000 -1000 -1000 
-1000 -1000 -1000 -1000 -1000 -1000 -1000 -1000 -1000 
-1000 -1000 -1000 -1000 -1000 -1000 -1000 -1000 -1000 
-1000 -1000 -1000 -1000 -1000 -1000 -1000 -1000 -1000 
-1000 -1000 -1000 -1000 -1000 -1000 -1000 -1000 -1000 
-1000 -1000 -1000 -1000 -1000 -1000 -1000 -1000 -1000 
-1000 -1000 -1000 -1000 -1000 -1000 -1000 -1000 -1000 
-1000 -1000 -1000 -1000 -1000 -1000 -1000 -1000 -1000 
-1000 -1000 -1000 -1000 -1000 -1000 -1000 -1000 -1000 
-1000 -1000 -1000 -1000 -1000 -1000 -1000 -1000 -1000 
-1000 -1000 -1000 -1000 -1000 -1000 -1000 -1000 -1000 
-1000 -1000 -1000 -1000 -1000 -1000 -1000 -1000 -1000 
-1000 -1000 -1000 -1000 -1000 -1000 -1000 -1000 -1000 
-1000 -1000 -1000 -1000 -1000 -1000 -1000 -1000 -1000 
-1000 -1000 -1000 -1000 -1000 -1000 -1000 -1000 -1000 
-1000 -1000 -1000 -1000 -1000 -1000 -1000 -1000 -1000 
-1000 -1000 -1000 -1000 -1000 -1000 -1000 -1000 -1000 
-1000 -1000 -1000 -1000 -1000 -1000 -1000 -1000 -1000 
-1000 -1000 -1000 -1000 -1000 -1000 -1000 -1000 -1000 
-1000 -1000 -1000 -1000 -1000 -1000 -1000 -1000 -1000 
-1000 -1000 -1000 -1000 -1000 -1000 -1000 -1000 -1000 
-1000 -1000 -1000 -1000 -1000 -1000 -1000 -1000 -1000 
-1000 -1000 -1000 -1000 -1000 -1000 -1000 -1000 -1000 
-1000 -1000 -1000 -1000 -1000 -1000 -1000 -1000 -1000 
-1000 -1000 -1000 -1000 -1000 -1000 -1000 -1000 -1000 
-1000 -1000 -1000 -1000 -1000 -1000 -1000 -1000 -1000 
-1000 -1000 -1000 -1000 -1000 -1000 -1000 -1000 -1000 
-1000 -1000 -1000 -1000 -1000 -1000 -1000 -1000 -1000 
-1000 -1000 -1000 -1000 -1000 -1000 -1000 -1000 -1000 
-1000 -1000 -1000 -1000 -1000 -1000 -1000 -1000 -1000 
-1000 -1000 -1000 -1000 -1000 -1000 -1000 -1000 -1000 
-1000 -1000 -1000 -1000 -1000 -1000 -1000 -1000 -1000 
-1000 -1000 -1000 -1000 -1000 -1000 -1000 -1000 -1000 
-1000 -1000 -1000 -1000 -1000 -1000 -1000 -1000 -1000 
-1000 -1000 -1000 -1000 -1000 -1000 -1000 -1000 -1000 
-1000 -1000 -1000 -1000 -1000 -1000 -1000 -1000 -1000 
-1000 -1000 -1000 -1000 -1000 -1000 -1000 -1000 -1000 
-1000 -1000 -1000 -1000 -1000 -1000 -1000 -1000 -1000 
-1000 -1000 -1000 -1000 -1000 -1000 -1000 -1000 -1000 
-1000 -1000 -1000 -1000 -1000 -1000 -1000 -1000 -1000 
-1000 -1000 -1000 -1000 -1000 -1000 -1000 -1000 -1000 
-1000 -1000 -1000 -1000 -1000 -1000 -1000 -1000 -1000 
-1000 -1000 -1000 -1000 -1000 -1000 -1000 -1000 -1000 
-1000 -1000 -1000 -1000 -1000 -1000 -1000 -1000 -1000 
-1000 -1000 -1000 -1000 -1000 -1000 -1000 -1000 -1000 
-1000 -1000 -1000 -1000 -1000 -1000 -1000 -1000 -1000 
-1000 -1000 -1000 -1000 -1000 -1000 -1000 -1000 -1000 
-1000 -1000 -1000 -1000 -1000 -1000 -1000 -1000 -1000 
-1000 -1000 -1000 -1000 -1000 -1000 -1000 -1000 -1000 
-1000 -1000 -1000 -1000 -1000 -1000 -1000 -1000 -1000 
-1000 -1000 -1000 -1000 -1000 -1000 -1000 -1000 -1000 
-1000 -1000 -1000 -1000 -1000 -1000 -1000 -1000 -1000 
-1000 -1000 -1000 -1000 -1000 -1000 -1000 -1000 -1000 
-1000 -1000 -1000 -1000 -1000 -1000 -1000 -1000 -1000 
-1000 -1000 -1000 -1000 -1000 -1000 -1000 -1000 -1000 
-1000 -1000 -1000 -1000 -1000 -1000 -1000 -1000 -1000 
-1000 -1000 -1000 -1000 -1000 -1000 -1000 -1000 -1000 
-1000 -1000 -1000 -1000 -1000 -1000 -1000 -1000 -1000 
-1000 -1000 -1000 -1000 -1000 -1000 -1000 -1000 -1000 
-1000 -1000 -1000 -1000 -1000 -1000 -1000 -1000 -1000 
-1000 -1000 -1000 -1000 -1000 -1000 -1000 -1000 -1000 
-1000 -1000 -1000 -1000 -1000 -1000 -1000 -1000 -1000 
-1000 -1000 -1000 -1000 -1000 -1000 -1000 -1000 -1000 
-1000 -1000 -1000 -1000 -1000 -1000 -1000 -1000 -1000 
-1000 -1000 -1000 -1000 -1000 -1000 -1000 -1000 -1000 
-1000 -1000 -1000 -1000 -1000 -1000 -1000 -1000 -1000 
-1000 -1000 -1000 -1000 -1000 -1000 -1000 -1000 -1000 
-1000 -1000 -1000 -1000 -1000 -1000 -1000 -1000 -1000 
-1000 -1000 -1000 -1000 -1000 -1000 -1000 -1000 -1000 
-1000 -1000 -1000 -1000 -1000 -1000 -1000 -1000 -1000 
-1000 -1000 -1000 -1000 -1000 -1000 -1000 -1000 -1000 
-1000 -1000 -1000 -1000 -1000 -1000 -1000 -1000 -1000 
-1000 -1000 -1000 -1000 -1000 -1000 -1000 -1000 -1000 
-1000 -1000 -1000 -1000 -1000 -1000 -1000 -1000 -1000 
-1000 -1000 -1000 -1000 -1000 -1000 -1000 -1000 -1000 
-1000 -1000 -1000 -1000 -1000 -1000 -1000 -1000 -1000 
-1000 -1000 -1000 -1000 -1000 -1000 -1000 -1000 -1000 
-1000 -1000 -1000 -1000 -1000 -1000 -1000 -1000 -1000 
-1000 -1000 -1000 -1000 -1000 -1000 -1000 -1000 -1000 
-1000 -1000 -1000 -1000 -1000 -1000 -1000 -1000 -1000 
-1000 -1000 -1000 -1000 -1000 -1000 -1000 -1000 -1000 
-1000 -1000 -1000 -1000 -1000 -1000 -1000 -1000 -1000 
-1000 -1000 -1000 -1000 -1000 -1000 -1000 -1000 -1000 
-1000 -1000 -1000 -1000 -1000 -1000 -1000 -1000 -1000 
-1000 -1000 -1000 -1000 -1000 -1000 -1000 -1000 -1000 
-1000 -1000 -1000 -1000 -1000 -1000 -1000 -1000 -1000 
-1000 -1000 -1000 -1000 -1000 -1000 -1000 -1000 -1000 
-1000 -1000 -1000 -1000 -1000 -1000 -1000 -1000 -1000 
-1000 -1000 -1000 -1000 -1000 -1000 -1000 -1000 -1000 
-1000 -1000 -1000 -1000 -1000 -1000 -1000 -1000 -1000 
-1000 -1000 -1000 -1000 -1000 -1000 -1000 -1000 -1000 
-1000 -1000 -1000 -1000 -1000 -1000 -1000 -1000 -1000 
-1000 -1000 -1000 -1000 -1000 -1000 -1000 -1000 -1000 
-1000 -1000 -1000 -1000 -1000 -1000 -1000 -1000 -1000 
-1000 -1000 -1000 -1000 -1000 -1000 -1000 -1000 -1000 
-1000 -1000 -1000 -1000 -1000 -1000 -1000 -1000 -1000 
-1000 -1000 -1000 -1000 -1000 -1000 -1000 -1000 -1000 
-1000 -1000 -1000 -1000 -1000 -1000 -1000 -1000 -1000 
-1000 -1000 -1000 -1000 -1000 -1000 -1000 -1000 -1000 
-1000 -1000 -1000 -1000 -1000 -1000 -1000 -1000 -1000 
-1000 -1000 -1000 -1000 -1000 -1000 -1000 -1000 -1000 
-1000 -1000 -1000 -1000 -1000 -1000 -1000 -1000 -1000 
-1000 -1000 -1000 -1000 -1000 -1000 -1000 -1000 -1000 
-1000 -1000 -1000 -1000 -1000 -1000 -1000 -1000 -1000 
-1000 -1000 -1000 -1000 -1000 -1000 -1000 -1000 -1000 
-1000 -1000 -1000 -1000 -1000 -1000 -1000 -1000 -1000 
-1000 -1000 -1000 -1000 -1000 -1000 -1000 -1000 -1000 
-1000 -1000 -1000 -1000 -1000 -1000 -1000 -1000 -1000 
-1000 -1000 -1000 -1000 -1000 -1000 -1000 -1000 -1000 
-1000 -1000 -1000 -1000 -1000 -1000 -1000 -1000 -1000 
-1000 -1000 -1000 -1000 -1000 -1000 -1000 -1000 -1000 
-1000 -1000 -1000 -1000 -1000 -1000 -1000 -1000 -1000 
-1000 -1000 -1000 -1000 -1000 -1000 -1000 -1000 -1000 
-1000 -1000 -1000 -1000 -1000 -1000 -1000 -1000 -1000 
-1000 -1000 -1000 -1000 -1000 -1000 -1000 -1000 -1000 
-1000 -1000 -1000 -1000 -1000 -1000 -1000 -1000 -1000 
-1000 -1000 -1000 -1000 -1000 -1000 -1000 -1000 -1000 
-1000 -1000 -1000 -1000 -1000 -1000 -1000 -1000 -1000 
-1000 -1000 -1000 -1000 -1000 -1000 -1000 -1000 -1000 
-1000 -1000 -1000 -1000 -1000 -1000 -1000 -1000 -1000 
-1000 -1000 -1000 -1000 -1000 -1000 -1000 -1000 -1000 
-1000 -1000 -1000 -1000 -1000 -1000 -1000 -1000 -1000 
-1000 -1000 -1000 -1000 -1000 -1000 -1000 -1000 -1000 
-1000 -1000 -1000 -1000 -1000 -1000 -1000 -1000 -1000 
-1000 -1000 -1000 -1000 -1000 -1000 -1000 -1000 -1000 
-1000 -1000 -1000 -1000 -1000 -1000 -1000 -1000 -1000 
-1000 -1000 -1000 -1000 -1000 -1000 -1000 -1000 -1000 
-1000 -1000 -1000 -1000 -1000 -1000 -1000 -1000 -1000 
-1000 -1000 -1000 -1000 -1000 -1000 -1000 -1000 -1000 
-1000 -1000 -1000 -1000 -1000 -1000 -1000 -1000 -1000 
-1000 -1000 -1000 -1000 -1000 -1000 -1000 -1000 -1000 
-1000 -1000 -1000 -1000 -1000 -1000 -1000 -1000 -1000 
-1000 -1000 -1000 -1000 -1000 -1000 -1000 -1000 -1000 
-1000 -1000 -1000 -1000 -1000 -1000 -1000 -1000 -1000 
-1000 -1000 -1000 -1000 -1000 -1000 -1000 -1000 -1000 
-1000 -1000 -1000 -1000 -1000 -1000 -1000 -1000 -1000 
-1000 -1000 -1000 -1000 -1000 -1000 -1000 -1000 -1000 
-1000 -1000 -1000 -1000 -1000 -1000 -1000 -1000 -1000 
-1000 -1000 -1000 -1000 -1000 -1000 -1000 -1000 -1000 
-1000 -1000 -1000 -1000 -1000 -1000 -1000 -1000 -1000 
-1000 -1000 -1000 -1000 -1000 -1000 -1000 -1000 -1000 
-1000 -1000 -1000 -1000 -1000 -1000 -1000 -1000 -1000 
-1000 -1000 -1000 -1000 -1000 -1000 -1000 -1000 -1000 
-1000 -1000 -1000 -1000 -1000 -1000 -1000 -1000 -1000 
-1000 -1000 -1000 -1000 -1000 -1000 -1000 -1000 -1000 
-1000 -1000 -1000 -1000 -1000 -1000 -1000 -1000 -1000 
-1000 -1000 -1000 -1000 -1000 -1000 -1000 -1000 -1000 
-1000 -1000 -1000 -1000 -1000 -1000 -1000 -1000 -1000 
-1000 -1000 -1000 -1000 -1000 -1000 -1000 -1000 -1000 
-1000 -1000 -1000 -1000 -1000 -1000 -1000 -1000 -1000 
-1000 -1000 -1000 -1000 -1000 -1000 -1000 -1000 -1000 
-1000 -1000 -1000 -1000 -1000 -1000 -1000 -1000 -1000 
-1000 -1000 -1000 -1000 -1000 -1000 -1000 -1000 -1000 
-1000 -1000 -1000 -1000 -1000 -1000 -1000 -1000 -1000 
-1000 -1000 -1000 -1000 -1000 -1000 -1000 -1000 -1000 
-1000 -1000 -1000 -1000 -1000 -1000 -1000 -1000 -1000 
-1000 -1000 -1000 -1000 -1000 -1000 -1000 -1000 -1000 
-1000 -1000 -1000 -1000 -1000 -1000 -1000 -1000 -1000 
-1000 -1000 -1000 -1000 -1000 -1000 -1000 -1000 -1000 
-1000 -1000 -1000 -1000 -1000 -1000 -1000 -1000 -1000 
-1000 -1000 -1000 -1000 -1000 -1000 -1000 -1000 -1000 
-1000 -1000 -1000 -1000 -1000 -1000 -1000 -1000 -1000 
-1000 -1000 -1000 -1000 -1000 -1000 -1000 -1000 -1000 
-1000 -1000 -1000 -1000 -1000 -1000 -1000 -1000 -1000 
-1000 -1000 -1000 -1000 -1000 -1000 -1000 -1000 -1000 
-1000 -1000 -1000 -1000 -1000 -1000 -1000 -1000 -1000 
-1000 -1000 -1000 -1000 -1000 -1000 -1000 -1000 -1000 
-1000 -1000 -1000 -1000 -1000 -1000 -1000 -1000 -1000 
-1000 -1000 -1000 -1000 -1000 -1000 -1000 -1000 -1000 
-1000 -1000 -1000 -1000 -1000 -1000 -1000 -1000 -1000 
-1000 -1000 -1000 -1000 -1000 -1000 -1000 -1000 -1000 
-1000 -1000 -1000 -1000 -1000 -1000 -1000 -1000 -1000 
-1000 -1000 -1000 -1000 -1000 -1000 -1000 -1000 -1000 
-1000 -1000 -1000 -1000 -1000 -1000 -1000 -1000 -1000 
-1000 -1000 -1000 -1000 -1000 -1000 -1000 -1000 -1000 
-1000 -1000 -1000 -1000 -1000 -1000 -1000 -1000 -1000 
-1000 -1000 -1000 -1000 -1000 -1000 -1000 -1000 -1000 
-1000 -1000 -1000 -1000 -1000 -1000 -1000 -1000 -1000 
-1000 -1000 -1000 -1000 -1000 -1000 -1000 -1000 -1000 
-1000 -1000 -1000 -1000 -1000 -1000 -1000 -1000 -1000 
-1000 -1000 -1000 -1000 -1000 -1000 -1000 -1000 -1000 
-1000 -1000 -1000 -1000 -1000 -1000 -1000 -1000 -1000 
-1000 -1000 -1000 -1000 -1000 -1000 -1000 -1000 -1000 
-1000 -1000 -1000 -1000 -1000 -1000 -1000 -1000 -1000 
-1000 -1000 -1000 -1000 -1000 -1000 -1000 -1000 -1000 
-1000 -1000 -1000 -1000 -1000 -1000 -1000 -1000 -1000 
-1000 -1000 -1000 -1000 -1000 -1000 -1000 -1000 -1000 
-1000 -1000 -1000 -1000 -1000 -1000 -1000 -1000 -1000 
-1000 -1000 -1000 -1000 -1000 -1000 -1000 -1000 -1000 
-1000 -1000 -1000 -1000 -1000 -1000 -1000 -1000 -1000 
-1000 -1000 -1000 -1000 -1000 -1000 -1000 -1000 -1000 
-1000 -1000 -1000 -1000 -1000 -1000 -1000 -1000 -1000 
-1000 -1000 -1000 -1000 -1000 -1000 -1000 -1000 -1000 
-1000 -1000 -1000 -1000 -1000 -1000 -1000 -1000 -1000 
-1000 -1000 -1000 -1000 -1000 -1000 -1000 -1000 -1000 
-1000 -1000 -1000 -1000 -1000 -1000 -1000 -1000 -1000 
-1000 -1000 -1000 -1000 -1000 -1000 -1000 -1000 -1000 
-1000 -1000 -1000 -1000 -1000 -1000 -1000 -1000 -1000 
-1000 -1000 -1000 -1000 -1000 -1000 -1000 -1000 -1000 
-1000 -1000 -1000 -1000 -1000 -1000 -1000 -1000 -1000 
-1000 -1000 -1000 -1000 -1000 -1000 -1000 -1000 -1000 
-1000 -1000 -1000 -1000 -1000 -1000 -1000 -1000 -1000 
-1000 -1000 -1000 -1000 -1000 -1000 -1000 -1000 -1000 
-1000 -1000 -1000 -1000 -1000 -1000 -1000 -1000 -1000 
-1000 -1000 -1000 -1000 -1000 -1000 -1000 -1000 -1000 
-1000 -1000 -1000 -1000 -1000 -1000 -1000 -1000 -1000 
-1000 -1000 -1000 -1000 -1000 -1000 -1000 -1000 -1000 
-1000 -1000 -1000 -1000 -1000 -1000 -1000 -1000 -1000 
-1000 -1000 -1000 -1000 -1000 -1000 -1000 -1000 -1000 
-1000 -1000 -1000 -1000 -1000 -1000 -1000 -1000 -1000 
-1000 -1000 -1000 -1000 -1000 -1000 -1000 -1000 -1000 
-1000 -1000 -1000 -1000 -1000 -1000 -1000 -1000 -1000 
-1000 -1000 -1000 -1000 -1000 -1000 -1000 -1000 -1000 
-1000 -1000 -1000 -1000 -1000 -1000 -1000 -1000 -1000 
-1000 -1000 -1000 -1000 -1000 -1000 -1000 -1000 -1000 
-1000 -1000 -1000 -1000 -1000 -1000 -1000 -1000 -1000 
-1000 -1000 -1000 -1000 -1000 -1000 -1000 -1000 -1000 
-1000 -1000 -1000 -1000 -1000 -1000 -1000 -1000 -1000 
-1000 -1000 -1000 -1000 -1000 -1000 -1000 -1000 -1000 
-1000 -1000 -1000 -1000 -1000 -1000 -1000 -1000 -1000 
-1000 -1000 -1000 -1000 -1000 -1000 -1000 -1000 -1000 
-1000 -1000 -1000 -1000 -1000 -1000 -1000 -1000 -1000 
-1000 -1000 -1000 -1000 -1000 -1000 -1000 -1000 -1000 
-1000 -1000 -1000 -1000 -1000 -1000 -1000 -1000 -1000 
-1000 -1000 -1000 -1000 -1000 -1000 -1000 -1000 -1000 
-1000 -1000 -1000 -1000 -1000 -1000 -1000 -1000 -1000 
-1000 -1000 -1000 -1000 -1000 -1000 -1000 -1000 -1000 
-1000 -1000 -1000 -1000 -1000 -1000 -1000 -1000 -1000 
-1000 -1000 -1000 -1000 -1000 -1000 -1000 -1000 -1000 
-1000 -1000 -1000 -1000 -1000 -1000 -1000 -1000 -1000 
-1000 -1000 -1000 -1000 -1000 -1000 -1000 -1000 -1000 
-1000 -1000 -1000 -1000 -1000 -1000 -1000 -1000 -1000 
-1000 -1000 -1000 -1000 -1000 -1000 -1000 -1000 -1000 
-1000 -1000 -1000 -1000 -1000 -1000 -1000 -1000 -1000 
-1000 -1000 -1000 -1000 -1000 -1000 -1000 -1000 -1000 
-1000 -1000 -1000 -1000 -1000 -1000 -1000 -1000 -1000 