# vtk DataFile Version 3.0
vtk output
ASCII
DATASET POLYDATA
POINTS 17746 float
-82.8283 -13.7723 -3.30217 -82.0437 -14.4448 -2.84275 -81.7833 -13.9075 -2.93639 
-83.8474 -13.9795 -3.44868 -82.8915 -14.596 -3.01064 -83.7742 -14.5757 -3.17899 
-81.1755 -12.6278 -3.06256 -80.3478 -13.1367 -2.64108 -80.2571 -12.3228 -2.7726 
-82.1985 -13.0177 -3.32544 -81.0532 -13.5614 -2.78661 -83.3159 -12.8947 -3.70363 
-84.1017 -13.1343 -3.792 -84.5281 -14.1389 -3.44895 -85.107 -13.3404 -3.79428 
-86.1189 -13.2035 -3.78966 -85.4198 -13.9322 -3.53751 -86.3661 -13.5819 -3.59911 
-81.2781 -11.498 -3.32142 -80.2392 -11.4904 -2.92171 -82.3331 -11.9027 -3.59768 
-83.3724 -12.095 -3.86696 -84.349 -12.2212 -4.06392 -85.3256 -12.3326 -4.10672 
-86.2988 -12.4292 -4.00253 -87.1319 -12.6569 -3.74816 -80.785 -10.4671 -3.35171 
-79.7676 -11.0494 -2.81338 -79.7698 -10.3802 -2.9725 -81.9379 -10.4859 -3.71761 
-82.6861 -10.8349 -3.86051 -83.6389 -11.0978 -4.06495 -84.6315 -11.2575 -4.22697 
-85.4229 -11.4758 -4.27194 -86.5498 -11.3072 -4.15185 -87.2336 -11.7346 -3.91833 
-80.3224 -9.46053 -3.4088 -79.3699 -9.90616 -2.89895 -79.4926 -9.01623 -3.11947 
-81.3584 -9.38076 -3.77944 -82.1205 -9.62609 -3.9106 -83.0944 -9.80067 -4.08927 
-84.0646 -10.048 -4.23959 -84.8371 -10.3747 -4.32814 -86.1198 -10.2772 -4.32183 
-87.4297 -10.1875 -4.0203 -87.7242 -10.8734 -3.82784 -80.5217 -8.30368 -3.6927 
-79.7251 -7.95339 -3.35491 -81.4593 -8.51667 -3.96546 -82.4034 -8.66649 -4.14093 
-83.394 -8.7836 -4.25303 -84.4817 -8.93213 -4.35552 -85.6237 -9.26197 -4.40873 
-86.856 -9.11189 -4.34415 -87.3948 -9.45045 -4.16802 -80.8112 -7.23996 -3.90921 
-80.0944 -6.89461 -3.55474 -81.7248 -7.48116 -4.1778 -82.719 -7.6831 -4.31922 
-83.5085 -7.93861 -4.36333 -84.7577 -7.73231 -4.3954 -85.8642 -8.05477 -4.40499 
-86.97 -8.22765 -4.36052 -81.1481 -6.26102 -4.02062 -80.6188 -5.9006 -3.69178 
-82.0039 -6.46446 -4.29053 -83.0436 -6.64328 -4.42805 -84.2118 -6.88648 -4.42519 
-85.4733 -6.68516 -4.34618 -86.2354 -7.01066 -4.32815 -87.0127 -7.35609 -4.3356 
-81.4803 -5.5211 -4.00674 -81.3605 -5.11856 -3.79116 -82.2388 -5.56807 -4.23042 
-83.2617 -5.66697 -4.38666 -84.3475 -5.81841 -4.40996 -85.4837 -5.89624 -4.32079 
-82.3504 -4.84808 -4.01626 -83.4595 -4.81383 -4.19254 -84.571 -4.9188 -4.27588 
-85.4517 -5.14036 -4.2751 -81.8539 -16.8371 -2.13869 -81.1635 -17.4915 -1.85446 
-80.868 -16.9249 -1.91215 -82.9423 -17.1242 -2.26183 -81.9607 -17.7559 -1.94127 
-83.9883 -17.2696 -2.35264 -82.9682 -17.9624 -2.03178 -84.9736 -17.3217 -2.39104 
-84.0181 -18.011 -2.10864 -84.9403 -17.8745 -2.17826 -79.9375 -15.5704 -1.98779 
-79.2973 -16.1154 -1.73483 -79.0355 -15.4558 -1.80154 -81.0578 -16.0786 -2.14521 
-80.081 -16.5536 -1.82112 -82.1606 -15.9643 -2.41559 -83.0461 -16.2189 -2.51078 
-84.1047 -16.3947 -2.61854 -85.1842 -16.5114 -2.70024 -85.654 -17.3918 -2.36312 
-86.2242 -16.6681 -2.69273 -86.389 -17.1582 -2.47299 -79.185 -14.561 -2.01635 
-78.4517 -15.0243 -1.77077 -78.2437 -14.3599 -1.85573 -80.1842 -14.7808 -2.21996 
-80.7977 -15.2501 -2.27294 -81.8567 -15.1965 -2.55317 -83.1892 -15.279 -2.8026 
-84.3087 -15.4623 -2.88739 -85.4469 -15.5461 -2.98954 -86.5756 -15.6717 -3.0617 
-87.1269 -16.6623 -2.7135 -87.725 -15.8382 -3.05103 -88.8236 -15.6903 -3.02235 
-88.0966 -16.4273 -2.78595 -89.2176 -16.0626 -2.70045 -78.4605 -13.4946 -2.02694 
-77.6774 -13.9171 -1.80645 -77.5256 -13.2682 -1.83042 -79.2592 -13.7663 -2.18066 
-80.0486 -13.927 -2.36788 -81.0753 -14.4735 -2.54011 -84.49 -14.6744 -3.18514 
-85.7392 -14.4972 -3.29355 -86.888 -14.6057 -3.31777 -88.0033 -14.7466 -3.3364 
-89.0379 -14.898 -3.21479 -89.7593 -15.166 -2.89323 -77.8451 -12.4748 -1.94452 
-77.031 -12.7989 -1.70506 -77.0113 -11.9723 -1.6933 -78.7028 -12.5507 -2.19302 
-79.4587 -13.0315 -2.36065 -87.1425 -13.5774 -3.52035 -88.3144 -13.5341 -3.46395 
-89.2911 -13.8583 -3.34337 -90.2966 -14.0224 -2.9375 -77.8548 -11.4215 -2.00067 
-77.079 -10.9959 -1.73708 -78.5119 -11.8382 -2.2044 -79.3735 -11.8944 -2.50272 
-88.1366 -12.6015 -3.54544 -88.9353 -12.5235 -3.42446 -89.5555 -12.8133 -3.32265 
-90.268 -13.0841 -3.10729 -77.8926 -10.4166 -2.11025 -77.1872 -10.1755 -1.84329 
-78.8757 -10.8394 -2.48406 -88.1762 -11.569 -3.60496 -88.8729 -11.8656 -3.41567 
-77.7553 -9.35955 -2.20467 -76.8563 -9.64777 -1.82212 -77.0193 -8.77252 -2.01126 
-78.656 -9.70337 -2.58345 -88.2719 -10.1229 -3.68496 -88.5507 -10.6149 -3.52603 
-78.0277 -8.17366 -2.46317 -77.3256 -7.68708 -2.20737 -78.746 -8.62893 -2.77989 
-88.1151 -8.49265 -4.15341 -88.4524 -9.34758 -3.81341 -78.4167 -7.06093 -2.67019 
-77.7456 -6.59185 -2.38099 -79.0548 -7.52801 -3.00156 -88.3092 -7.25135 -4.28124 
-89.2556 -8.54238 -3.83589 -89.6749 -7.61151 -4.0856 -90.8701 -7.42869 -3.95631 
-90.5806 -8.24417 -3.55982 -91.4754 -7.54809 -3.68894 -78.9595 -5.93501 -2.85496 
-78.2413 -5.48992 -2.54446 -79.5555 -6.42349 -3.19885 -86.5878 -6.02253 -4.2491 
-87.7059 -6.35396 -4.27287 -88.9794 -6.20763 -4.32014 -89.831 -6.50713 -4.30545 
-90.8659 -6.70236 -4.18269 -91.715 -6.87583 -3.92084 -79.5581 -4.79591 -3.00513 
-78.7654 -4.39132 -2.69735 -80.4332 -5.19491 -3.3953 -86.7278 -4.978 -4.19508 
-87.9024 -5.24433 -4.2234 -89.032 -5.376 -4.31278 -90.1275 -5.48765 -4.37825 
-91.1021 -5.71963 -4.32065 -91.9564 -5.98919 -4.10381 -80.0918 -3.70359 -3.11885 
-79.3048 -3.33756 -2.82982 -81.0623 -3.98636 -3.42957 -82.1906 -4.19505 -3.74632 
-83.6436 -4.0291 -3.97891 -84.8634 -4.0594 -4.09931 -86.1007 -4.23608 -4.15299 
-87.3807 -4.03852 -4.14732 -88.1901 -4.25733 -4.20064 -89.2287 -4.39709 -4.30439 
-90.3298 -4.48861 -4.41781 -91.5366 -4.58993 -4.42581 -92.2354 -5.05245 -4.24579 
-80.5175 -2.73359 -3.19043 -79.8313 -2.53331 -2.93446 -81.535 -2.90901 -3.49932 
-82.692 -3.08658 -3.72906 -83.9229 -3.16263 -3.88756 -85.1444 -3.19158 -4.00003 
-86.3013 -3.26304 -4.07745 -87.4292 -3.30445 -4.13088 -88.4638 -3.34916 -4.19485 
-89.4483 -3.43729 -4.30411 -90.4858 -3.50494 -4.44456 -91.5804 -3.55966 -4.53193 
-92.5934 -4.30393 -4.34286 -92.715 -3.57682 -4.45409 -93.2073 -3.89452 -4.26716 
-80.6635 -2.05186 -3.17197 -81.1716 -1.31515 -3.31679 -81.8291 -1.84775 -3.54539 
-83.0863 -2.0611 -3.8096 -84.2937 -2.20317 -3.93173 -85.4617 -2.29197 -4.00491 
-86.5715 -2.3608 -4.06867 -87.6326 -2.42004 -4.13166 -88.6544 -2.46601 -4.20561 
-89.647 -2.5092 -4.31276 -90.6432 -2.55124 -4.45696 -91.6671 -2.59662 -4.58067 
-92.6972 -2.66234 -4.55815 -93.5714 -3.39465 -4.22769 -93.6129 -2.76676 -4.29116 
-94.2229 -3.05497 -3.78717 -82.4316 -0.781252 -3.71669 -81.6579 -0.426657 -3.47468 
-83.4485 -1.05906 -3.92685 -84.6213 -1.24329 -4.03574 -85.7663 -1.36972 -4.07749 
-86.8449 -1.45848 -4.11359 -87.8657 -1.52268 -4.16485 -88.8511 -1.56766 -4.23697 
-89.8194 -1.59697 -4.34076 -90.7898 -1.61931 -4.47862 -91.7761 -1.65213 -4.60503 
-92.7688 -1.72996 -4.59776 -93.7002 -1.90275 -4.31698 -94.4353 -2.23078 -3.7519 
-82.7729 0.0911299 -3.8086 -82.1012 0.276769 -3.5987 -83.7611 -0.0887288 -4.03395 
-84.8941 -0.293308 -4.14743 -86.0216 -0.447338 -4.17581 -87.0825 -0.554622 -4.19045 
-88.0781 -0.625843 -4.22777 -89.0331 -0.669047 -4.29599 -89.9726 -0.690865 -4.39841 
-90.9157 -0.699617 -4.53161 -91.8765 -0.715647 -4.6521 -92.8529 -0.78331 -4.63968 
-93.7939 -0.969863 -4.3345 -94.5963 -1.34222 -3.68323 -82.8308 0.713177 -3.80385 
-83.1523 1.44353 -3.92184 -83.8935 0.921619 -4.0843 -85.1043 0.664764 -4.24117 
-86.2254 0.478905 -4.27916 -87.2735 0.353221 -4.28796 -88.2526 0.273336 -4.31871 
-89.1849 0.230231 -4.38544 -90.0985 0.215072 -4.4885 -91.013 0.21391 -4.62006 
-91.9455 0.214048 -4.73875 -92.9098 0.17565 -4.72901 -93.8684 0.00760094 -4.41339 
-94.7159 -0.375086 -3.69694 -84.2547 2.12362 -4.26424 -83.2889 2.23491 -4.06118 
-85.3054 1.67091 -4.35128 -86.3871 1.42795 -4.39081 -87.4189 1.27881 -4.40531 
-88.3854 1.18729 -4.43838 -89.3001 1.13655 -4.50533 -90.1894 1.12334 -4.60353 
-91.0816 1.12979 -4.72472 -91.968 1.1178 -4.83908 -92.8919 1.1228 -4.85172 
-93.8845 1.0384 -4.57718 -94.8087 0.67885 -3.84307 -83.7765 3.09015 -4.34072 
-82.8303 2.72131 -4.06508 -82.8581 3.56584 -4.25135 -84.7751 3.04988 -4.50465 
-85.5324 2.67654 -4.51128 -86.5191 2.40473 -4.52582 -87.5188 2.23522 -4.5422 
-88.4756 2.13075 -4.58052 -89.3843 2.06421 -4.64584 -90.2391 2.01812 -4.72705 
-91.1018 2.04203 -4.81304 -91.9997 2.04118 -4.89728 -92.7466 1.88521 -4.9314 
-93.7277 2.12745 -4.78426 -94.8616 1.87797 -4.16587 -83.7782 4.16894 -4.52705 
-82.983 4.56467 -4.42475 -84.6992 3.88189 -4.62555 -85.648 3.63202 -4.67283 
-86.5949 3.38875 -4.67284 -87.5651 3.21916 -4.67668 -88.5168 3.10559 -4.71029 
-89.4324 3.02455 -4.77126 -90.3069 2.94215 -4.82776 -91.0064 2.78974 -4.86282 
-91.9549 3.07831 -4.87585 -93.0073 2.84703 -4.89223 -93.9314 3.07079 -4.79973 
-94.5381 2.78487 -4.59244 -83.8138 5.09258 -4.62823 -83.2161 5.33871 -4.52811 
-84.6725 4.85914 -4.72849 -85.6406 4.59324 -4.78131 -86.591 4.34527 -4.78666 
-87.5328 4.19478 -4.7612 -88.4912 4.09891 -4.75667 -89.422 3.99461 -4.80492 
-90.3302 3.90798 -4.85271 -91.2998 3.77455 -4.84881 -92.2156 4.04727 -4.77781 
-92.9164 3.83788 -4.79448 -93.6606 3.64681 -4.79438 -83.7769 5.76035 -4.63118 
-84.1121 6.43323 -4.6114 -84.6072 5.84776 -4.72206 -85.6104 5.56611 -4.78712 
-86.5918 5.28903 -4.79135 -87.3757 4.9892 -4.77467 -88.3614 5.14381 -4.6588 
-89.3603 4.93559 -4.67593 -90.2582 4.8307 -4.73722 -91.1267 4.74334 -4.76035 
-91.9895 4.75587 -4.71961 -84.8518 6.63924 -4.63909 -84.6144 7.09613 -4.53725 
-85.5837 6.46439 -4.66875 -86.5693 6.2253 -4.65796 -87.6334 5.89388 -4.60069 
-88.5869 6.02888 -4.42463 -89.3182 5.82594 -4.43533 -90.1831 5.68937 -4.50945 
-91.037 5.60177 -4.60227 -91.7441 5.45282 -4.64903 -85.4585 7.228 -4.51751 
-86.4547 7.10487 -4.48079 -87.4697 6.85857 -4.42323 -88.2858 6.59434 -4.34951 
-83.0479 -21.1926 -1.60298 -82.5008 -21.8186 -1.26266 -82.1139 -21.3124 -1.35395 
-84.1114 -21.4295 -1.72866 -83.3382 -22.0039 -1.35766 -85.034 -21.5688 -1.76461 
[...]
POINT_DATA 17746
SCALARS scalars float
LOOKUP_TABLE default
-1000 -1000 -1000 -1000 -1000 -1000 -1000 -1000 -1000 
-1000 -1000 -1000 -1000 -1000 -1000 -1000 -1000 -1000 
-1000 -1000 -1000 -1000 -1000 -1000 -1000 -1000 -1000 
-1000 -1000 -1000 -1000 -1000 -1000 -1000 -1000 -1000 
-1000 -1000 -1000 -1000 -1000 -1000 -1000 -1000 -1000 
-1000 -1000 -1000 -1000 -1000 -1000 -1000 -1000 -1000 
-1000 -1000 -1000 -1000 -1000 -1000 -1000 -1000 -1000 
-1000 -1000 -1000 -1000 -1000 -1000 -1000 -1000 -1000 
-1000 -1000 -1000 -1000 -1000 -1000 -1000 -1000 -1000 
-1000 -1000 -1000 -1000 -1000 -1000 -1000 -1000 -1000 
-1000 -1000 -1000 -1000 -1000 -1000 -1000 -1000 -1000 
-1000 -1000 -1000 -1000 -1000 -1000 -1000 -1000 -1000 
-1000 -1000 -1000 -1000 -1000 -1000 -1000 -1000 -1000 
-1000 -1000 -1000 -1000 -1000 -1000 -1000 -1000 -1000 
-1000 -1000 -1000 -1000 -1000 -1000 -1000 -1000 -1000 
-1000 -1000 -1000 -1000 -1000 -1000 -1000 -1000 -1000 
-1000 -1000 -1000 -1000 -1000 -1000 -1000 -1000 -1000 
-1000 -1000 -1000 -1000 -1000 -1000 -1000 -1000 -1000 
-1000 -1000 -1000 -1000 -1000 -1000 -1000 -1000 -1000 
-1000 -1000 -1000 -1000 -1000 -1000 -1000 -1000 -1000 
-1000 -1000 -1000 -1000 -1000 -1000 -1000 -1000 -1000 
-1000 -1000 -1000 -1000 -1000 -1000 -1000 -1000 -1000 
-1000 -1000 -1000 -1000 -1000 -1000 -1000 -1000 -1000 
-1000 -1000 -1000 -1000 -1000 -1000 -1000 -1000 -1000 
-1000 -1000 -1000 -1000 -1000 -1000 -1000 -1000 -1000 
-1000 -1000 -1000 -1000 -1000 -1000 -1000 -1000 -1000 
-1000 -1000 -1000 -1000 -1000 -1000 -1000 -1000 -1000 
-1000 -1000 -1000 -1000 -1000 -1000 -1000 -1000 -1000 
-1000 -1000 -1000 -1000 -1000 -1000 -1000 -1000 -1000 
-1000 -1000 -1000 -1000 -1000 -1000 -1000 -1000 -1000 
-1000 -1000 -1000 -1000 -1000 -1000 -1000 -1000 -1000 
-1000 -1000 -1000 -1000 -1000 -1000 -1000 -1000 -1000 
-1000 -1000 -1000 -1000 -1000 -1000 -1000 -1000 -1000 
-1000 -1000 -1000 -1000 -1000 -1000 -1000 -1000 -1000 
-1000 -1000 -1000 -1000 -1000 -1000 -1000 -1000 -1000 
-1000 -1000 -1000 -1000 -1000 -1000 -1000 -1000 -1000 
-1000 -1000 -1000 -1000 -1000 -1000 -1000 -1000 -1000 
-1000 -1000 -1000 -1000 -1000 -1000 -1000 -1000 -1000 
-1000 -1000 -1000 -1000 -1000 -1000 -1000 -1000 -1000 
-1000 -1000 -1000 -1000 -1000 -1000 -1000 -1000 -1000 
-1000 -1000 -1000 -1000 -1000 -1000 -1000 -1000 -1000 
-1000 -1000 -1000 -1000 -1000 -1000 -1000 -1000 -1000 
-1000 -1000 -1000 -1000 -1000 -1000 -1000 -1000 -1000 
-1000 -1000 -1000 -1000 -1000 -1000 -1000 -1000 -1000 
-1000 -1000 -1000 -1000 -1000 -1000 -1000 -1000 -1000 
-1000 -1000 -1000 -1000 -1000 -1000 -1000 -1000 -1000 
-1000 -1000 -1000 -1000 -1000 -1000 -1000 -1000 -1000 
-1000 -1000 -1000 -1000 -1000 -1000 -1000 -1000 -1000 
-1000 -1000 -1000 -1000 -1000 -1000 -1000 -1000 -1000 
-1000 -1000 -1000 -1000 -1000 -1000 -1000 -1000 -1000 
-1000 -1000 -1000 -1000 -1000 -1000 -1000 -1000 -1000 
-1000 -1000 -1000 -1000 -1000 -1000 -1000 -1000 -1000 
-1000 -1000 -1000 -1000 -1000 -1000 -1000 -1000 -1000 
-1000 -1000 -1000 -1000 -1000 -1000 -1000 -1000 -1000 
-1000 -1000 -1000 -1000 -1000 -1000 -1000 -1000 -1000 
-1000 -1000 -1000 -1000 -1000 -1000 -1000 -1000 -1000 
-1000 -1000 -1000 -1000 -1000 -1000 -1000 -1000 -1000 
-1000 -1000 -1000 -1000 -1000 -1000 -1000 -1000 -1000 
-1000 -1000 -1000 -1000 -1000 -1000 -1000 -1000 -1000 
-1000 -1000 -1000 -1000 -1000 -1000 -1000 -1000 -1000 
-1000 -1000 -1000 -1000 -1000 -1000 -1000 -1000 -1000 
-1000 -1000 -1000 -1000 -1000 -1000 -1000 -1000 -1000 
-1000 -1000 -1000 -1000 -1000 -1000 -1000 -1000 -1000 
-1000 -1000 -1000 -1000 -1000 -1000 -1000 -1000 -1000 
-1000 -1000 -1000 -1000 -1000 -1000 -1000 -1000 -1000 
-1000 -1000 -1000 -1000 -1000 -1000 -1000 -1000 -1000 
-1000 -1000 -1000 -1000 -1000 -1000 -1000 -1000 -1000 
-1000 -1000 -1000 -1000 -1000 -1000 -1000 -1000 -1000 
-1000 -1000 -1000 -1000 -1000 -1000 -1000 -1000 -1000 
-1000 -1000 -1000 -1000 -1000 -1000 -1000 -1000 -1000 
-1000 -1000 -1000 -1000 -1000 -1000 -1000 -1000 -1000 
-1000 -1000 -1000 -1000 -1000 -1000 -1000 -1000 -1000 
-1000 -1000 -1000 -1000 -1000 -1000 -1000 -1000 -1000 
-1000 -1000 -1000 -1000 -1000 -1000 -1000 -1000 -1000 
-1000 -1000 -1000 -1000 -1000 -1000 -1000 -1000 -1000 
-1000 -1000 -1000 -1000 -1000 -1000 -1000 -1000 -1000 
-1000 -1000 -1000 -1000 -1000 -1000 -1000 -1000 -1000 
-1000 -1000 -1000 -1000 -1000 -1000 -1000 -1000 -1000 
-1000 -1000 -1000 -1000 -1000 -1000 -1000 -1000 -1000 
-1000 -1000 -1000 -1000 -1000 -1000 -1000 -1000 -1000 
-1000 -1000 -1000 -1000 -1000 -1000 -1000 -1000 -1000 
-1000 -1000 -1000 -1000 -1000 -1000 -1000 -1000 -1000 
-1000 -1000 -1000 -1000 -1000 -1000 -1000 -1000 -1000 
-1000 -1000 -1000 -1000 -1000 -1000 -1000 -1000 -1000 
-1000 -1000 -1000 -1000 -1000 -1000 -1000 -1000 -1000 
-1000 -1000 -1000 -1000 -1000 -1000 -1000 -1000 -1000 
-1000 -1000 -1000 -1000 -1000 -1000 -1000 -1000 -1000 
-1000 -1000 -1000 -1000 -1000 -1000 -1000 -1000 -1000 
-1000 -1000 -1000 -1000 -1000 -1000 -1000 -1000 -1000 
-1000 -1000 -1000 -1000 -1000 -1000 -1000 -1000 -1000 
-1000 -1000 -1000 -1000 -1000 -1000 -1000 -1000 -1000 
-1000 -1000 -1000 -1000 -1000 -1000 -1000 -1000 -1000 
-1000 -1000 -1000 -1000 -1000 -1000 -1000 -1000 -1000 
-1000 -1000 -1000 -1000 -1000 -1000 -1000 -1000 -1000 
-1000 -1000 -1000 -1000 -1000 -1000 -1000 -1000 -1000 
-1000 -1000 -1000 -1000 -1000 -1000 -1000 -1000 -1000 
-1000 -1000 -1000 -1000 -1000 -1000 -1000 -1000 -1000 
-1000 -1000 -1000 -1000 -1000 -1000 -1000 -1000 -1000 
-1000 -1000 -1000 -1000 -1000 -1000 -1000 -1000 -1000 
-1000 -1000 -1000 -1000 -1000 -1000 -1000 -1000 -1000 
-1000 -1000 -1000 -1000 -1000 -1000 -1000 -1000 -1000 
-1000 -1000 -1000 -1000 -1000 -1000 -1000 -1000 -1000 
-1000 -1000 -1000 -1000 -1000 -1000 -1000 -1000 -1000 
-1000 -1000 -1000 -1000 -1000 -1000 -1000 -1000 -1000 
-1000 -1000 -1000 -1000 -1000 -1000 -1000 -1000 -1000 
-1000 -1000 -1000 -1000 -1000 -1000 -1000 -1000 -1000 
-1000 -1000 -1000 -1000 -1000 -1000 -1000 -1000 -1000 
-1000 -1000 -1000 -1000 -1000 -1000 -1000 -1000 -1000 
-1000 -1000 -1000 -1000 -1000 -1000 -1000 -1000 -1000 
-1000 -1000 -1000 -1000 -1000 -1000 -1000 -1000 -1000 
-1000 -1000 -1000 -1000 -1000 -1000 -1000 -1000 -1000 
-1000 -1000 -1000 -1000 -1000 -1000 -1000 -1000 -1000 
-1000 -1000 -1000 -1000 -1000 -1000 -1000 -1000 -1000 
-1000 -1000 -1000 -1000 -1000 -1000 -1000 -1000 -1000 
-1000 -1000 -1000 -1000 -1000 -1000 -1000 -1000 -1000 
-1000 -1000 -1000 -1000 -1000 -1000 -1000 -1000 -1000 
-1000 -1000 -1000 -1000 -1000 -1000 -1000 -1000 -1000 
-1000 -1000 -1000 -1000 -1000 -1000 -1000 -1000 -1000 
-1000 -1000 -1000 -1000 -1000 -1000 -1000 -1000 -1000 
-1000 -1000 -1000 -1000 -1000 -1000 -1000 -1000 -1000 
-1000 -1000 -1000 -1000 -1000 -1000 -1000 -1000 -1000 
-1000 -1000 -1000 -1000 -1000 -1000 -1000 -1000 -1000 
-1000 -1000 -1000 -1000 -1000 -1000 -1000 -1000 -1000 
-1000 -1000 -1000 -1000 -1000 -1000 -1000 -1000 -1000 
-1000 -1000 -1000 -1000 -1000 -1000 -1000 -1000 -1000 
-1000 -1000 -1000 -1000 -1000 -1000 -1000 -1000 -1000 
-1000 -1000 -1000 -1000 -1000 -1000 -1000 -1000 -1000 
-1000 -1000 -1000 -1000 -1000 -1000 -1000 -1000 -1000 
-1000 -1000 -1000 -1000 -1000 -1000 -1000 -1000 -1000 
-1000 -1000 -1000 -1000 -1000 -1000 -1000 -1000 -1000 
-1000 -1000 -1000 -1000 -1000 -1000 -1000 -1000 -1000 
-1000 -1000 -1000 -1000 -1000 -1000 -1000 -1000 -1000 
-1000 -1000 -1000 -1000 -1000 -1000 -1000 -1000 -1000 
-1000 -1000 -1000 -1000 -1000 -1000 -1000 -1000 -1000 
-1000 -1000 -1000 -1000 -1000 -1000 -1000 -1000 -1000 
-1000 -1000 -1000 -1000 -1000 -1000 -1000 -1000 -1000 
-1000 -1000 -1000 -1000 -1000 -1000 -1000 -1000 -1000 
-1000 -1000 -1000 -1000 -1000 -1000 -1000 -1000 -1000 
-1000 -1000 -1000 -1000 -1000 -1000 -1000 -1000 -1000 
-1000 -1000 -1000 -1000 -1000 -1000 -1000 -1000 -1000 
-1000 -1000 -1000 -1000 -1000 -1000 -1000 -1000 -1000 
-1000 -1000 -1000 -1000 -1000 -1000 -1000 -1000 -1000 
-1000 -1000 -1000 -1000 -1000 -1000 -1000 -1000 -1000 
-1000 -1000 -1000 -1000 -1000 -1000 -1000 -1000 -1000 
-1000 -1000 -1000 -1000 -1000 -1000 -1000 -1000 -1000 
-1000 -1000 -1000 -1000 -1000 -1000 -1000 -1000 -1000 
-1000 -1000 -1000 -1000 -1000 -1000 -1000 -1000 -1000 
-1000 -1000 -1000 -1000 -1000 -1000 -1000 -1000 -1000 
-1000 -1000 -1000 -1000 -1000 -1000 -1000 -1000 -1000 
-1000 -1000 -1000 -1000 -1000 -1000 -1000 -1000 -1000 
-1000 -1000 -1000 -1000 -1000 -1000 -1000 -1000 -1000 
-1000 -1000 -1000 -1000 -1000 -1000 -1000 -1000 -1000 
-1000 -1000 -1000 -1000 -1000 -1000 -1000 -1000 -1000 
-1000 -1000 -1000 -1000 -1000 -1000 -1000 -1000 -1000 
-1000 -1000 -1000 -1000 -1000 -1000 -1000 -1000 -1000 
-1000 -1000 -1000 -1000 -1000 -1000 -1000 -1000 -1000 
-1000 -1000 -1000 -1000 -1000 -1000 -1000 -1000 -1000 
-1000 -1000 -1000 -1000 -1000 -1000 -1000 -1000 -1000 
-1000 -1000 -1000 -1000 -1000 -1000 -1000 -1000 -1000 
-1000 -1000 -1000 -1000 -1000 -1000 -1000 -1000 -1000 
-1000 -1000 -1000 -1000 -1000 -1000 -1000 -1000 -1000 
-1000 -1000 -1000 -1000 -1000 -1000 -1000 -1000 -1000 
-1000 -1000 -1000 -1000 -1000 -1000 -1000 -1000 -1000 
-1000 -1000 -1000 -1000 -1000 -1000 -1000 -1000 -1000 
-1000 -1000 -1000 -1000 -1000 -1000 -1000 -1000 -1000 
-1000 -1000 -1000 -1000 -1000 -1000 -1000 -1000 -1000 
-1000 -1000 -1000 -1000 -1000 -1000 -1000 -1000 -1000 
-1000 -1000 -1000 -1000 -1000 -1000 -1000 -1000 -1000 
-1000 -1000 -1000 -1000 -1000 -1000 -1000 -1000 -1000 
-1000 -1000 -1000 -1000 -1000 -1000 -1000 -1000 -1000 
-1000 -1000 -1000 -1000 -1000 -1000 -1000 -1000 -1000 
-1000 -1000 -1000 -1000 -1000 -1000 -1000 -1000 -1000 
-1000 -1000 -1000 -1000 -1000 -1000 -1000 -1000 -1000 
-1000 -1000 -1000 -1000 -1000 -1000 -1000 -1000 -1000 
-1000 -1000 -1000 -1000 -1000 -1000 -1000 -1000 -1000 
-1000 -1000 -1000 -1000 -1000 -1000 -1000 -1000 -1000 
-1000 -1000 -1000 -1000 -1000 -1000 -1000 -1000 -1000 
-1000 -1000 -1000 -1000 -1000 -1000 -1000 -1000 -1000 
-1000 -1000 -1000 -1000 -1000 -1000 -1000 -1000 -1000 
-1000 -1000 -1000 -1000 -1000 -1000 -1000 -1000 -1000 
-1000 -1000 -1000 -1000 -1000 -1000 -1000 -1000 -1000 
-1000 -1000 -1000 -1000 -1000 -1000 -1000 -1000 -1000 
-1000 -1000 -1000 -1000 -1000 -1000 -1000 -1000 -1000 
-1000 -1000 -1000 -1000 -1000 -1000 -1000 -1000 -1000 
-1000 -1000 -1000 -1000 -1000 -1000 -1000 -1000 -1000 
-1000 -1000 -1000 -1000 -1000 -1000 -1000 -1000 -1000 
-1000 -1000 -1000 -1000 -1000 -1000 -1000 -1000 -1000 
-1000 -1000 -1000 -1000 -1000 -1000 -1000 -1000 -1000 
-1000 -1000 -1000 -1000 -1000 -1000 -1000 -1000 -1000 
-1000 -1000 -1000 -1000 -1000 -1000 -1000 -1000 -1000 
-1000 -1000 -1000 -1000 -1000 -1000 -1000 -1000 -1000 
-1000 -1000 -1000 -1000 -1000 -1000 -1000 -1000 -1000 
-1000 -1000 -1000 -1000 -1000 -1000 -1000 -1000 -1000 
-1000 -1000 -1000 -1000 -1000 -1000 -1000 -1000 -1000 
-1000 -1000 -1000 -1000 -1000 -1000 -1000 -1000 -1000 
-1000 -1000 -1000 -1000 -1000 -1000 -1000 -1000 -1000 
-1000 -1000 -1000 -1000 -1000 -1000 -1000 -1000 -1000 
-1000 -1000 -1000 -1000 -1000 -1000 -1000 -1000 -1000 
-1000 -1000 -1000 -1000 -1000 -1000 -1000 -1000 -1000 
-1000 -1000 -1000 -1000 -1000 -1000 -1000 -1000 -1000 
-1000 -1000 -1000 -1000 -1000 -1000 -1000 -1000 -1000 
-1000 -1000 -1000 -1000 -1000 -1000 -1000 -1000 -1000 
-1000 -1000 -1000 -1000 -1000 -1000 -1000 -1000 -1000 
-1000 -1000 -1000 -1000 -1000 -1000 -1000 -1000 -1000 
-1000 -1000 -1000 -1000 -1000 -1000 -1000 -1000 -1000 
-1000 -1000 -1000 -1000 -1000 -1000 -1000 -1000 -1000 
-1000 -1000 -1000 -1000 -1000 -1000 -1000 -1000 -1000 
-1000 -1000 -1000 -1000 -1000 -1000 -1000 -1000 -1000 
-1000 -1000 -1000 -1000 -1000 -1000 -1000 -1000 -1000 
-1000 -1000 -1000 -1000 -1000 -1000 -1000 -1000 -1000 
-1000 -1000 -1000 -1000 -1000 -1000 -1000 -1000 -1000 
-1000 -1000 -1000 -1000 -1000 -1000 -1000 -1000 -1000 
-1000 -1000 -1000 -1000 -1000 -1000 -1000 -1000 -1000 
-1000 -1000 -1000 -1000 -1000 -1000 -1000 -1000 -1000 
-1000 -1000 -1000 -1000 -1000 -1000 -1000 -1000 -1000 
-1000 -1000 -1000 -1000 -1000 -1000 -1000 -1000 -1000 
-1000 -1000 -1000 -1000 -1000 -1000 -1000 -1000 -1000 
-1000 -1000 -1000 -1000 -1000 -1000 -1000 -1000 -1000 
-1000 -1000 -1000 -1000 -1000 -1000 -1000 -1000 -1000 
-1000 -1000 -1000 -1000 -1000 -1000 -1000 -1000 -1000 
-1000 -1000 -1000 -1000 -1000 -1000 -1000 -1000 -1000 
-1000 -1000 -1000 -1000 -1000 -1000 -1000 -1000 -1000 
-1000 -1000 -1000 -1000 -1000 -1000 -1000 -1000 -1000 
-1000 -1000 -1000 -1000 -1000 -1000 -1000 -1000 -1000 
-1000 -1000 -1000 -1000 -1000 -1000 -1000 -1000 -1000 
-1000 -1000 -1000 -1000 -1000 -1000 -1000 -1000 -1000 
-1000 -1000 -1000 -1000 -1000 -1000 -1000 -1000 -1000 
-1000 -1000 -1000 -1000 -1000 -1000 -1000 -1000 -1000 
-1000 -1000 -1000 -1000 -1000 -1000 -1000 -1000 -1000 
-1000 -1000 -1000 -1000 -1000 -1000 -1000 -1000 -1000 
-1000 -1000 -1000 -1000 -1000 -1000 -1000 -1000 -1000 
-1000 -1000 -1000 -1000 -1000 -1000 -1000 -1000 -1000 
-1000 -1000 -1000 -1000 -1000 -1000 -1000 -1000 -1000 
-1000 -1000 -1000 -1000 -1000 -1000 -1000 -1000 -1000 
-1000 -1000 -1000 -1000 -1000 -1000 -1000 -1000 -1000 
-1000 -1000 -1000 -1000 -1000 -1000 -1000 -1000 -1000 
-1000 -1000 -1000 -1000 -1000 -1000 -1000 -1000 -1000 
-1000 -1000 -1000 -1000 -1000 -1000 -1000 -1000 -1000 
-1000 -1000 -1000 -1000 -1000 -1000 -1000 -1000 -1000 
-1000 -1000 -1000 -1000 -1000 -1000 -1000 -1000 -1000 
-1000 -1000 -1000 -1000 -1000 -1000 -1000 -1000 -1000 
-1000 -1000 -1000 -1000 -1000 -1000 -1000 -1000 -1000 
-1000 -1000 -1000 -1000 -1000 -1000 -1000 -1000 -1000 
-1000 -1000 -1000 -1000 -1000 -1000 -1000 -1000 -1000 
-1000 -1000 -1000 -1000 -1000 -1000 -1000 -1000 -1000 
-1000 -1000 -1000 -1000 -1000 -1000 -1000 -1000 -1000 
-1000 -1000 -1000 -1000 -1000 -1000 -1000 -1000 -1000 
-1000 -1000 -1000 -1000 -1000 -1000 -1000 -1000 -1000 
-1000 -1000 -1000 -1000 -1000 -1000 -1000 -1000 -1000 
-1000 -1000 -1000 -1000 -1000 -1000 -1000 -1000 -1000 
-1000 -1000 -1000 -1000 -1000 -1000 -1000 -1000 -1000 
-1000 -1000 -1000 -1000 -1000 -1000 -1000 -1000 -1000 
-1000 -1000 -1000 -1000 -1000 -1000 -1000 -1000 -1000 
-1000 -1000 -1000 -1000 -1000 -1000 -1000 -1000 -1000 
-1000 -1000 -1000 -1000 -1000 -1000 -1000 -1000 -1000 
-1000 -1000 -1000 -1000 -1000 -1000 -1000 -1000 -1000 
-1000 -1000 -1000 -1000 -1000 -1000 -1000 -1000 -1000 
-1000 -1000 -1000 -1000 -1000 -1000 -1000 -1000 -1000 
-1000 -1000 -1000 -1000 -1000 -1000 -1000 -1000 -1000 
-1000 -1000 -1000 -1000 -1000 -1000 -1000 -1000 -1000 
-1000 -1000 -1000 -1000 -1000 -1000 -1000 -1000 -1000 
-1000 -1000 -1000 -1000 -1000 -1000 -1000 -1000 -1000 
-1000 -1000 -1000 -1000 -1000 -1000 -1000 -1000 -1000 
-1000 -1000 -1000 -1000 -1000 -1000 -1000 -1000 -1000 
-1000 -1000 -1000 -1000 -1000 -1000 -1000 -1000 -1000 
-1000 -1000 -1000 -1000 -1000 -1000 -1000 -1000 -1000 
-1000 -1000 -1000 -1000 -1000 -1000 -1000 -1000 -1000 
-1000 -1000 -1000 -1000 -1000 -1000 -1000 -1000 -1000 
-1000 -1000 -1000 -1000 -1000 -1000 -1000 -1000 -1000 
-1000 -1000 -1000 -1000 -1000 -1000 -1000 -1000 -1000 
-1000 -1000 -1000 -1000 -1000 -1000 -1000 -1000 -1000 
-1000 -1000 -1000 -1000 -1000 -1000 -1000 -1000 -1000 
-1000 -1000 -1000 -1000 -1000 -1000 -1000 -1000 -1000 
-1000 -1000 -1000 -1000 -1000 -1000 -1000 -1000 -1000 
-1000 -1000 -1000 -1000 -1000 -1000 -1000 -1000 -1000 
-1000 -1000 -1000 -1000 -1000 -1000 -1000 -1000 -1000 
-1000 -1000 -1000 -1000 -1000 -1000 -1000 -1000 -1000 
-1000 -1000 -1000 -1000 -1000 -1000 -1000 -1000 -1000 
-1000 -1000 -1000 -1000 -1000 -1000 -1000 -1000 -1000 
-1000 -1000 -1000 -1000 -1000 -1000 -1000 -1000 -1000 
-1000 -1000 -1000 -1000 -1000 -1000 -1000 -1000 -1000 
-1000 -1000 -1000 -1000 -1000 -1000 -1000 -1000 -1000 
-1000 -1000 -1000 -1000 -1000 -1000 -1000 -1000 -1000 
-1000 -1000 -1000 -1000 -1000 -1000 -1000 -1000 -1000 
-1000 -1000 -1000 -1000 -1000 -1000 -1000 -1000 -1000 
-1000 -1000 -1000 -1000 -1000 -1000 -1000 -1000 -1000 
-1000 -1000 -1000 -1000 -1000 -1000 -1000 -1000 -1000 
-1000 -1000 -1000 -1000 -1000 -1000 -1000 -1000 -1000 
-1000 -1000 -1000 -1000 -1000 -1000 -1000 -1000 -1000 
-1000 -1000 -1000 -1000 -1000 -1000 -1000 -1000 -1000 
-1000 -1000 -1000 -1000 -1000 -1000 -1000 -1000 -1000 
-1000 -1000 -1000 -1000 -1000 -1000 -1000 -1000 -1000 
-1000 -1000 -1000 -1000 -1000 -1000 -1000 -1000 -1000 
-1000 -1000 -1000 -1000 -1000 -1000 -1000 -1000 -1000 
-1000 -1000 -1000 -1000 -1000 -1000 -1000 -1000 -1000 
-1000 -1000 -1000 -1000 -1000 -1000 -1000 -1000 -1000 
-1000 -1000 -1000 -1000 -1000 -1000 -1000 -1000 -1000 
-1000 -1000 -1000 -1000 -1000 -1000 -1000 -1000 -1000 
-1000 -1000 -1000 -1000 -1000 -1000 -1000 -1000 -1000 
-1000 -1000 -1000 -1000 -1000 -1000 -1000 -1000 -1000 
-1000 -1000 -1000 -1000 -1000 -1000 -1000 -1000 -1000 
-1000 -1000 -1000 -1000 -1000 -1000 -1000 -1000 -1000 
-1000 -1000 -1000 -1000 -1000 -1000 -1000 -1000 -1000 
-1000 -1000 -1000 -1000 -1000 -1000 -1000 -1000 -1000 
-1000 -1000 -1000 -1000 -1000 -1000 -1000 -1000 -1000 
-1000 -1000 -1000 -1000 -1000 -1000 -1000 -1000 -1000 
-1000 -1000 -1000 -1000 -1000 -1000 -1000 -1000 -1000 
-1000 -1000 -1000 -1000 -1000 -1000 -1000 -1000 -1000 
-1000 -1000 -1000 -1000 -1000 -1000 -1000 -1000 -1000 
-1000 -1000 -1000 -1000 -1000 -1000 -1000 -1000 -1000 
-1000 -1000 -1000 -1000 -1000 -1000 -1000 -1000 -1000 
-1000 -1000 -1000 -1000 -1000 -1000 -1000 -1000 -1000 
-1000 -1000 -1000 -1000 -1000 -1000 -1000 -1000 -1000 
-1000 -1000 -1000 -1000 -1000 -1000 -1000 -1000 -1000 
-1000 -1000 -1000 -1000 -1000 -1000 -1000 -1000 -1000 
-1000 -1000 -1000 -1000 -1000 -1000 -1000 -1000 -1000 
-1000 -1000 -1000 -1000 -1000 -1000 -1000 -1000 -1000 
-1000 -1000 -1000 -1000 -1000 -1000 -1000 -1000 -1000 
-1000 -1000 -1000 -1000 -1000 -1000 -1000 -1000 -1000 
-1000 -1000 -1000 -1000 -1000 -1000 -1000 -1000 -1000 
-1000 -1000 -1000 -1000 -1000 -1000 -1000 -1000 -1000 
-1000 -1000 -1000 -1000 -1000 -1000 -1000 -1000 -1000 
-1000 -1000 -1000 -1000 -1000 -1000 -1000 -1000 -1000 
-1000 -1000 -1000 -1000 -1000 -1000 -1000 -1000 -1000 
-1000 -1000 -1000 -1000 -1000 -1000 -1000 -1000 -1000 
-1000 -1000 -1000 -1000 -1000 -1000 -1000 -1000 -1000 
-1000 -1000 -1000 -1000 -1000 -1000 -1000 -1000 -1000 
-1000 -1000 -1000 -1000 -1000 -1000 -1000 -1000 -1000 
-1000 -1000 -1000 -1000 -1000 -1000 -1000 -1000 -1000 
-1000 -1000 -1000 -1000 -1000 -1000 -1000 -1000 -1000 
-1000 -1000 -1000 -1000 -1000 -1000 -1000 -1000 -1000 
-1000 -1000 -1000 -1000 -1000 -1000 -1000 -1000 -1000 
-1000 -1000 -1000 -1000 -1000 -1000 -1000 -1000 -1000 
-1000 -1000 -1000 -1000 -1000 -1000 -1000 -1000 -1000 
-1000 -1000 -1000 -1000 -1000 -1000 -1000 -1000 -1000 
-1000 -1000 -1000 -1000 -1000 -1000 -1000 -1000 -1000 
-1000 -1000 -1000 -1000 -1000 -1000 -1000 -1000 -1000 
-1000 -1000 -1000 -1000 -1000 -1000 -1000 -1000 -1000 
-1000 -1000 -1000 -1000 -1000 -1000 -1000 -1000 -1000 
-1000 -1000 -1000 -1000 -1000 -1000 -1000 -1000 -1000 
-1000 -1000 -1000 -1000 -1000 -1000 -1000 -1000 -1000 
-1000 -1000 -1000 -1000 -1000 -1000 -1000 -1000 -1000 
-1000 -1000 -1000 -1000 -1000 -1000 -1000 -1000 -1000 
-1000 -1000 -1000 -1000 -1000 -1000 -1000 -1000 -1000 
-1000 -1000 -1000 -1000 -1000 -1000 -1000 -1000 -1000 
-1000 -1000 -1000 -1000 -1000 -1000 -1000 -1000 -1000 
-1000 -1000 -1000 -1000 -1000 -1000 -1000 -1000 -1000 
-1000 -1000 -1000 -1000 -1000 -1000 -1000 -1000 -1000 
-1000 -1000 -1000 -1000 -1000 -1000 -1000 -1000 -1000 
-1000 -1000 -1000 -1000 -1000 -1000 -1000 -1000 -1000 
-1000 -1000 -1000 -1000 -1000 -1000 -1000 -1000 -1000 
-1000 -1000 -1000 -1000 -1000 -1000 -1000 -1000 -1000 
-1000 -1000 -1000 -1000 -1000 -1000 -1000 -1000 -1000 
-1000 -1000 -1000 -1000 -1000 -1000 -1000 -1000 -1000 
-1000 -1000 -1000 -1000 -1000 -1000 -1000 -1000 -1000 
-1000 -1000 -1000 -1000 -1000 -1000 -1000 -1000 -1000 