# vtk DataFile Version 3.0
vtk output
ASCII
DATASET POLYDATA
POINTS 13638 float
-79.7679 -21.8515 -70.9955 -79.9702 -21.7144 -71.0155 -80.0114 -21.6765 -70.9949 
-79.9736 -21.7115 -71.0158 -80.7833 -21.083 -71.0962 -80.8298 -21.0602 -70.9522 
-81.2537 -20.6163 -71.1434 -82.2823 -19.2867 -71.248 -82.3573 -19.1123 -71.2559 
-82.3723 -19.219 -71.0836 -81.8816 -19.8716 -71.2069 -65.3118 -22.4123 -69.6088 
-65.5571 -22.5501 -69.6316 -65.6979 -22.603 -69.4644 -66.1401 -22.7393 -69.6866 
-66.3266 -22.7927 -69.7042 -67.1318 -22.9921 -69.7804 -67.3043 -23.0871 -69.4085 
-67.5851 -23.1433 -69.8231 -67.9079 -23.2546 -69.6041 -67.8057 -23.2233 -69.8438 
-68.5167 -23.5242 -69.9106 -68.7743 -23.6092 -69.9348 -68.7947 -23.6279 -69.6697 
-69.5097 -23.8581 -70.0041 -69.7712 -23.9932 -69.6066 -70.3456 -24.0415 -70.0833 
-70.6543 -24.0991 -70.1126 -70.948 -24.1564 -69.9566 -70.6438 -24.3133 -69.2883 
-70.0253 -23.9698 -70.053 -71.4327 -24.3783 -69.5518 -70.9579 -24.1574 -70.1414 
-72.8223 -24.3305 -70.3191 -72.9534 -24.3043 -70.2408 -72.2395 -24.3231 -70.2634 
-72.2113 -24.3649 -69.8993 -71.8108 -24.268 -70.2226 -71.3168 -24.2194 -70.1755 
-72.9959 -24.5019 -69.3552 -72.8998 -24.3298 -70.3266 -73.1761 -24.2902 -70.3532 
-73.6978 -24.2179 -70.4035 -73.8424 -24.2006 -70.4174 -74.2419 -24.3569 -69.4532 
-75.0702 -23.9606 -70.5361 -75.3196 -23.9088 -70.5602 -75.7589 -23.8586 -70.3346 
-75.1462 -24.1355 -69.811 -74.9399 -23.9795 -70.5235 -75.7992 -24.0642 -69.5169 
-75.8093 -23.8019 -70.6076 -76.631 -23.557 -70.6874 -76.6459 -23.5529 -70.6888 
-76.6513 -23.5507 -70.6893 -76.9784 -23.5695 -69.6927 -77.8417 -23.0327 -70.8057 
-77.87 -23.0171 -70.8085 -78.0956 -22.9494 -69.8453 -78.9519 -22.4019 -70.9149 
-78.9648 -22.3932 -70.9161 -79.1541 -22.2711 -69.9755 -80.1633 -21.5807 -70.0703 
-81.1242 -20.8415 -70.167 -81.5504 -20.3179 -71.1732 -81.6299 -20.2395 -71.1811 
-82.011 -19.9798 -70.1765 -82.8421 -18.1587 -70.8834 -82.7043 -19.029 -70.0381 
-82.6851 -18.2687 -71.2912 -82.9174 -17.0961 -71.3188 -82.9672 -16.2653 -71.3273 
-83.0998 -17.099 -70.6605 -82.8034 -17.708 -71.3051 -82.7085 -14.1608 -71.3122 
-82.6806 -13.9663 -71.3104 -82.7558 -14.1589 -71.135 -82.8886 -15.1638 -71.3248 
-82.8762 -15.0822 -71.324 -82.9237 -15.163 -71.2437 -82.9228 -15.5688 -71.3263 
-61.6725 -19.0827 -69.2755 -62.0128 -19.2962 -69.3071 -62.1226 -19.368 -69.1994 
-62.1154 -19.3746 -69.3166 -63.0101 -20.1666 -69.3986 -63.1216 -20.3039 -69.4087 
-63.1698 -20.271 -69.2245 -62.8484 -19.9962 -69.3839 -63.6405 -20.8997 -69.4556 
-63.9754 -21.2845 -69.4859 -64.024 -21.2127 -68.965 -64.2853 -21.62 -69.5141 
-64.8627 -22.1264 -69.5671 -64.8843 -22.1063 -68.7248 -66.0767 -22.8624 -69.0783 
-65.775 -22.8093 -68.6317 -65.0259 -22.2554 -69.5821 -66.5166 -23.1892 -68.5362 
-66.233 -22.7707 -69.6953 -67.8661 -23.4162 -68.8743 -67.3255 -23.4437 -68.4566 
-66.2702 -22.7817 -69.6988 -66.2513 -22.7769 -69.6971 -68.1276 -23.7261 -68.2396 
-68.6599 -23.8191 -68.5865 -70.127 -24.3175 -68.9117 -69.5872 -24.1853 -68.6903 
-70.512 -24.5837 -68.2218 -72.0543 -24.5839 -69.091 -71.3869 -24.6428 -68.6313 
-72.2539 -24.7784 -68.3026 -73.3707 -24.7486 -68.206 -74.3269 -24.5949 -68.574 
-74.893 -24.3764 -69.143 -75.0384 -24.497 -68.4601 -76.0465 -24.1387 -68.5389 
-77.1523 -23.5727 -68.6902 -78.2236 -22.9142 -68.8464 -79.2744 -22.2175 -68.9969 
-80.3145 -21.4962 -69.1215 -81.3327 -20.7205 -69.1767 -82.3176 -19.8099 -69.0659 
-83.1856 -18.0271 -69.6168 -82.9553 -18.9353 -69.2163 -83.1771 -16.1594 -70.4606 
-83.3064 -16.9657 -69.8576 -82.9723 -16.1351 -71.3284 -82.629 -13.2334 -71.0137 
-82.9067 -14.0883 -70.2034 -82.5658 -13.2295 -71.3027 -83.141 -15.2445 -70.0926 
-82.5148 -12.3626 -71.3018 -82.4944 -11.6345 -71.3032 -82.6532 -12.4157 -70.6298 
-82.5414 -12.8713 -71.302 -82.4819 -10.5771 -71.3068 -82.4813 -10.4221 -71.3074 
-82.5198 -10.5819 -71.1814 -82.4797 -10.9656 -71.3048 -59.5446 -17.3193 -69.0798 
-59.6342 -17.4048 -69.088 -59.6703 -17.3961 -68.9518 -59.322 -17.0709 -69.0596 
-60.1675 -17.9345 -69.1366 -60.5043 -18.1916 -69.1677 -60.5001 -18.2135 -68.6862 
-60.882 -18.5198 -69.2024 -61.4565 -18.938 -69.2555 -61.3623 -19.0081 -68.4144 
-62.7352 -19.9621 -68.767 -62.2658 -19.7739 -68.2177 -61.5031 -18.9745 -69.2598 
-63.3553 -20.5636 -68.3513 -63.1464 -20.58 -67.7824 -63.738 -21.0602 -67.679 
-62.4332 -19.6134 -69.3459 -63.9296 -21.1083 -68.1954 -64.8137 -22.0386 -67.7009 
-65.7363 -22.8932 -67.5382 -66.9714 -23.5497 -67.9508 -66.632 -23.5143 -67.5183 
-67.4116 -23.8653 -67.424 -68.6796 -24.0874 -67.7137 -68.072 -23.9828 -67.5523 
-68.8191 -24.4326 -66.7691 -69.6747 -24.5013 -67.4527 -70.7156 -24.8533 -67.2764 
-71.4164 -24.878 -67.6744 -72.2649 -25.0219 -67.1304 -73.3245 -25.0049 -67.033 
-74.175 -24.7869 -67.7376 -75.006 -24.6715 -67.3765 -76.1963 -24.1866 -67.5031 
-77.294 -23.5994 -67.6433 -78.3763 -22.9352 -67.8319 -79.4414 -22.22 -68.0343 
-80.4852 -21.4842 -68.1643 -81.4886 -20.7234 -68.1906 -82.2672 -20.058 -68.0579 
-83.1903 -18.5839 -68.8988 -82.9276 -19.1746 -68.3632 -83.3589 -16.3284 -69.6503 
-83.4411 -17.1202 -69.0592 -83.3616 -18.134 -68.3953 -82.7986 -13.3251 -70.2323 
-83.0101 -13.8578 -69.5765 -83.2489 -14.8526 -69.0456 -83.4426 -16.0943 -68.9541 
-82.6495 -11.453 -70.4666 -82.8601 -12.2213 -69.6908 -82.488 -11.4475 -71.3034 
-82.9343 -13.0962 -69.5968 -82.5579 -9.73626 -70.8684 -82.7127 -10.6605 -70.0164 
-82.483 -9.73727 -71.3107 -82.4757 -8.17651 -71.3172 -82.508 -8.12402 -71.3079 
-82.4844 -8.915 -71.3146 -82.6078 -8.90199 -70.5637 -82.4758 -8.11805 -71.3174 
-82.4807 -9.23498 -71.3128 -82.4399 -7.31243 -71.3177 -82.412 -7.02241 -71.3163 
-82.494 -7.30351 -71.0457 -82.4749 -8.09396 -71.3175 -57.8858 -15.3957 -68.9297 
-58.0861 -15.6272 -68.9479 -58.1311 -15.5773 -68.6287 -57.388 -14.8329 -68.8846 
-58.4314 -16.0316 -68.9791 -58.8508 -16.5273 -69.017 -58.9227 -16.4279 -68.3126 
-58.9777 -16.6779 -69.0284 -59.7142 -17.287 -67.9943 -60.5103 -18.1357 -67.6936 
-61.3177 -18.9674 -67.4112 -62.1498 -19.7961 -67.1455 -63.0048 -20.635 -66.8856 
-64.3517 -21.6957 -67.2482 -63.8905 -21.4584 -66.7086 -64.999 -22.341 -66.7989 
-64.7603 -22.2986 -66.2806 -65.3636 -22.785 -66.1291 -65.72 -22.968 -66.5048 
-66.6197 -23.6724 -66.4067 -68.0128 -24.2344 -66.8162 -67.4306 -24.1151 -66.5225 
-68.278 -24.5191 -66.0072 -69.1161 -24.8124 -65.6977 -69.7673 -24.8391 -66.1924 
-71.3105 -25.0433 -66.869 -70.5993 -24.9889 -66.4967 -71.4894 -25.2056 -66.0956 
-72.5842 -25.2458 -65.9622 -73.501 -25.1402 -66.3176 -74.0397 -24.9679 -66.9246 
-74.2281 -25.0448 -66.2469 -75.2386 -24.7323 -66.3171 -76.3435 -24.2683 -66.4257 
-77.4948 -23.7406 -66.506 -78.6796 -22.9982 -66.9243 -79.7267 -22.2773 -67.1507 
-80.7528 -21.526 -67.2754 -81.7366 -20.746 -67.302 -82.667 -19.82 -67.2642 
-83.2137 -18.8527 -67.5729 -83.5618 -17.0552 -68.0801 -83.5292 -18.0319 -67.2817 
-83.1748 -13.9144 -68.7218 -83.4057 -14.8713 -67.8191 -83.5405 -15.9489 -67.9461 
-82.8403 -11.5316 -69.6663 -83.0156 -12.0289 -69.0473 -83.1219 -12.8937 -68.6258 
-82.706 -9.70064 -69.7879 -82.8764 -10.482 -68.9259 -82.9754 -11.3414 -68.9988 
-82.6476 -8.08977 -70.2474 -82.7537 -8.86396 -69.4866 -82.4032 -6.44992 -70.8467 
-82.6057 -7.2447 -69.9866 -82.3463 -6.47736 -71.3125 -82.1697 -4.19081 -71.3061 
-82.212 -4.08834 -71.2881 -82.1087 -4.85657 -71.2972 -82.2038 -4.81736 -70.6114 
-82.1795 -4.0936 -71.3074 -82.2106 -5.62984 -71.3034 -82.1332 -5.08148 -71.2985 
-82.2783 -5.58538 -70.7049 -82.2705 -6.0153 -71.3074 -82.1885 -4.05958 -71.3084 
-82.4044 -3.31075 -71.3325 -82.437 -3.30501 -71.3294 -82.595 -2.66107 -71.3538 
-82.764 -1.9351 -71.3732 -82.6699 -2.64525 -70.8763 -82.413 -3.27973 -71.3335 
-82.888 -1.12421 -71.3888 -82.8985 -0.545691 -71.3925 -82.9928 -1.08852 -70.9542 
-82.7762 -1.87666 -71.3747 -82.5597 1.48078 -71.3693 -82.479 1.81849 -71.3631 
-82.6458 1.47755 -71.0773 -82.7786 0.581484 -71.3861 -82.759 0.658189 -71.3846 
-82.816 0.5963 -71.3298 -82.8118 0.346503 -71.3882 -81.3636 4.93848 -71.2705 
-81.3307 5.02796 -71.2678 -81.3801 4.95814 -71.2068 -81.5185 4.57789 -71.2837 
-79.9058 8.37337 -71.1466 -79.8993 8.38924 -71.146 -79.881 8.38717 -71.1487 
-79.9338 8.31404 -71.149 -55.6457 -12.9661 -68.7263 -55.7757 -13.1022 -68.7382 
-55.8004 -13.0745 -68.5572 -55.2549 -12.5541 -68.6908 -56.2074 -13.5591 -68.7774 
-56.5396 -13.9108 -68.8076 -56.5796 -13.8491 -68.3021 -56.7725 -14.1612 -68.8288 
-57.3151 -14.751 -68.878 -57.3724 -14.6469 -68.0169 -57.3359 -14.7741 -68.8799 
-58.1708 -15.468 -67.7067 -58.9689 -16.3098 -67.3815 -59.7618 -17.1642 -67.0554 
-60.5447 -18.0178 -66.7454 -61.3068 -18.8441 -66.4746 -62.0764 -19.674 -66.1809 
-62.908 -20.5731 -65.8745 -63.7688 -21.4874 -65.6402 -64.6164 -22.3442 -65.4185 
-65.873 -23.248 -65.6644 -65.4772 -23.0822 -65.2695 -66.1862 -23.6306 -64.991 
-46.9502 -2.88971 -67.9397 -47.0591 -3.15583 -67.9489 -46.9839 -3.17354 -67.7415 
-47.1261 -3.29166 -67.9547 -47.2972 -3.60627 -67.9697 -66.5991 -23.8116 -65.3533 
-67.6163 -24.4266 -65.3451 -68.6037 -24.8909 -65.0458 -46.3153 -0.38564 -67.8903 
-46.3544 -0.613865 -67.893 -46.2388 -0.609716 -67.7024 -46.3727 -0.72935 -67.8943 
-46.5562 -1.697 -67.9074 -46.4803 -1.70837 -67.8248 -46.5686 -1.76065 -67.9083 
-46.6095 -1.90206 -67.9116 -69.3748 -25.208 -64.7204 -69.7774 -25.0722 -65.3841 
-70.0712 -25.3348 -64.824 -45.8525 2.59884 -67.8596 -45.9035 1.86975 -67.8612 
-45.7123 2.0253 -67.2707 -46.059 0.975319 -67.872 -46.0766 0.878762 -67.8732 
-45.992 0.893451 -67.7754 -46.091 0.829193 -67.8744 -46.126 0.667665 -67.877 
-70.5572 -25.2259 -65.4624 -71.5197 -25.4694 -64.9126 -45.8939 3.29411 -67.8668 
-45.7318 3.24831 -67.4327 -45.9494 3.67591 -67.8738 -45.85 4.04956 -67.4622 
-45.9968 4.05294 -67.8801 -45.8527 2.61306 -67.8597 -72.5433 -25.4741 -64.8334 
-46.0836 4.86079 -67.8921 -45.8989 5.05985 -66.9528 -46.1262 5.3736 -67.8985 
-46.0569 5.65758 -67.7849 -46.1483 5.60282 -67.9017 -46.0442 4.53816 -67.8868 
[...]
POINT_DATA 13638
SCALARS scalars float
LOOKUP_TABLE default
-1000 -1000 -1000 -1000 -1000 -1000 -1000 -1000 -1000 
-1000 -1000 -1000 -1000 -1000 -1000 -1000 -1000 -1000 
-1000 -1000 -1000 -1000 -1000 -1000 -1000 -1000 -1000 
-1000 -1000 -1000 -1000 -1000 -1000 -1000 -1000 -1000 
-1000 -1000 -1000 -1000 -1000 -1000 -1000 -1000 -1000 
-1000 -1000 -1000 -1000 -1000 -1000 -1000 -1000 -1000 
-1000 -1000 -1000 -1000 -1000 -1000 -1000 -1000 -1000 
-1000 -1000 -1000 -1000 -1000 -1000 -1000 -1000 -1000 
-1000 -1000 -1000 -1000 -1000 -1000 -1000 -1000 -1000 
-1000 -1000 -1000 -1000 -1000 -1000 -1000 -1000 -1000 
-1000 -1000 -1000 -1000 -1000 -1000 -1000 -1000 -1000 
-1000 -1000 -1000 -1000 -1000 -1000 -1000 -1000 -1000 
-1000 -1000 -1000 -1000 -1000 -1000 -1000 -1000 -1000 
-1000 -1000 -1000 -1000 -1000 -1000 -1000 -1000 -1000 
-1000 -1000 -1000 -1000 -1000 -1000 -1000 -1000 -1000 
-1000 -1000 -1000 -1000 -1000 -1000 -1000 -1000 -1000 
-1000 -1000 -1000 -1000 -1000 -1000 -1000 -1000 -1000 
-1000 -1000 -1000 -1000 -1000 -1000 -1000 -1000 -1000 
-1000 -1000 -1000 -1000 -1000 -1000 -1000 -1000 -1000 
-1000 -1000 -1000 -1000 -1000 -1000 -1000 -1000 -1000 
-1000 -1000 -1000 -1000 -1000 -1000 -1000 -1000 -1000 
-1000 -1000 -1000 -1000 -1000 -1000 -1000 -1000 -1000 
-1000 -1000 -1000 -1000 -1000 -1000 -1000 -1000 -1000 
-1000 -1000 -1000 -1000 -1000 -1000 -1000 -1000 -1000 
-1000 -1000 -1000 -1000 -1000 -1000 -1000 -1000 -1000 
-1000 -1000 -1000 -1000 -1000 -1000 -1000 -1000 -1000 
-1000 -1000 -1000 -1000 -1000 -1000 -1000 -1000 -1000 
-1000 -1000 -1000 -1000 -1000 -1000 -1000 -1000 -1000 
-1000 -1000 -1000 -1000 -1000 -1000 -1000 -1000 -1000 
-1000 -1000 -1000 -1000 -1000 -1000 -1000 -1000 -1000 
-1000 -1000 -1000 -1000 -1000 -1000 -1000 -1000 -1000 
-1000 -1000 -1000 -1000 -1000 -1000 -1000 -1000 -1000 
-1000 -1000 -1000 -1000 -1000 -1000 -1000 -1000 -1000 
-1000 -1000 -1000 -1000 -1000 -1000 -1000 -1000 -1000 
-1000 -1000 -1000 -1000 -1000 -1000 -1000 -1000 -1000 
-1000 -1000 -1000 -1000 -1000 -1000 -1000 -1000 -1000 
-1000 -1000 -1000 -1000 -1000 -1000 -1000 -1000 -1000 
-1000 -1000 -1000 -1000 -1000 -1000 -1000 -1000 -1000 
-1000 -1000 -1000 -1000 -1000 -1000 -1000 -1000 -1000 
-1000 -1000 -1000 -1000 -1000 -1000 -1000 -1000 -1000 
-1000 -1000 -1000 -1000 -1000 -1000 -1000 -1000 -1000 
-1000 -1000 -1000 -1000 -1000 -1000 -1000 -1000 -1000 
-1000 -1000 -1000 -1000 -1000 -1000 -1000 -1000 -1000 
-1000 -1000 -1000 -1000 -1000 -1000 -1000 -1000 -1000 
-1000 -1000 -1000 -1000 -1000 -1000 -1000 -1000 -1000 
-1000 -1000 -1000 -1000 -1000 -1000 -1000 -1000 -1000 
-1000 -1000 -1000 -1000 -1000 -1000 -1000 -1000 -1000 
-1000 -1000 -1000 -1000 -1000 -1000 -1000 -1000 -1000 
-1000 -1000 -1000 -1000 -1000 -1000 -1000 -1000 -1000 
-1000 -1000 -1000 -1000 -1000 -1000 -1000 -1000 -1000 
-1000 -1000 -1000 -1000 -1000 -1000 -1000 -1000 -1000 
-1000 -1000 -1000 -1000 -1000 -1000 -1000 -1000 -1000 
-1000 -1000 -1000 -1000 -1000 -1000 -1000 -1000 -1000 
-1000 -1000 -1000 -1000 -1000 -1000 -1000 -1000 -1000 
-1000 -1000 -1000 -1000 -1000 -1000 -1000 -1000 -1000 
-1000 -1000 -1000 -1000 -1000 -1000 -1000 -1000 -1000 
-1000 -1000 -1000 -1000 -1000 -1000 -1000 -1000 -1000 
-1000 -1000 -1000 -1000 -1000 -1000 -1000 -1000 -1000 
-1000 -1000 -1000 -1000 -1000 -1000 -1000 -1000 -1000 
-1000 -1000 -1000 -1000 -1000 -1000 -1000 -1000 -1000 
-1000 -1000 -1000 -1000 -1000 -1000 -1000 -1000 -1000 
-1000 -1000 -1000 -1000 -1000 -1000 -1000 -1000 -1000 
-1000 -1000 -1000 -1000 -1000 -1000 -1000 -1000 -1000 
-1000 -1000 -1000 -1000 -1000 -1000 -1000 -1000 -1000 
-1000 -1000 -1000 -1000 -1000 -1000 -1000 -1000 -1000 
-1000 -1000 -1000 -1000 -1000 -1000 -1000 -1000 -1000 
-1000 -1000 -1000 -1000 -1000 -1000 -1000 -1000 -1000 
-1000 -1000 -1000 -1000 -1000 -1000 -1000 -1000 -1000 
-1000 -1000 -1000 -1000 -1000 -1000 -1000 -1000 -1000 
-1000 -1000 -1000 -1000 -1000 -1000 -1000 -1000 -1000 
-1000 -1000 -1000 -1000 -1000 -1000 -1000 -1000 -1000 
-1000 -1000 -1000 -1000 -1000 -1000 -1000 -1000 -1000 
-1000 -1000 -1000 -1000 -1000 -1000 -1000 -1000 -1000 
-1000 -1000 -1000 -1000 -1000 -1000 -1000 -1000 -1000 
-1000 -1000 -1000 -1000 -1000 -1000 -1000 -1000 -1000 
-1000 -1000 -1000 -1000 -1000 -1000 -1000 -1000 -1000 
-1000 -1000 -1000 -1000 -1000 -1000 -1000 -1000 -1000 
-1000 -1000 -1000 -1000 -1000 -1000 -1000 -1000 -1000 
-1000 -1000 -1000 -1000 -1000 -1000 -1000 -1000 -1000 
-1000 -1000 -1000 -1000 -1000 -1000 -1000 -1000 -1000 
-1000 -1000 -1000 -1000 -1000 -1000 -1000 -1000 -1000 
-1000 -1000 -1000 -1000 -1000 -1000 -1000 -1000 -1000 
-1000 -1000 -1000 -1000 -1000 -1000 -1000 -1000 -1000 
-1000 -1000 -1000 -1000 -1000 -1000 -1000 -1000 -1000 
-1000 -1000 -1000 -1000 -1000 -1000 -1000 -1000 -1000 
-1000 -1000 -1000 -1000 -1000 -1000 -1000 -1000 -1000 
-1000 -1000 -1000 -1000 -1000 -1000 -1000 -1000 -1000 
-1000 -1000 -1000 -1000 -1000 -1000 -1000 -1000 -1000 
-1000 -1000 -1000 -1000 -1000 -1000 -1000 -1000 -1000 
-1000 -1000 -1000 -1000 -1000 -1000 -1000 -1000 -1000 
-1000 -1000 -1000 -1000 -1000 -1000 -1000 -1000 -1000 
-1000 -1000 -1000 -1000 -1000 -1000 -1000 -1000 -1000 
-1000 -1000 -1000 -1000 -1000 -1000 -1000 -1000 -1000 
-1000 -1000 -1000 -1000 -1000 -1000 -1000 -1000 -1000 
-1000 -1000 -1000 -1000 -1000 -1000 -1000 -1000 -1000 
-1000 -1000 -1000 -1000 -1000 -1000 -1000 -1000 -1000 
-1000 -1000 -1000 -1000 -1000 -1000 -1000 -1000 -1000 
-1000 -1000 -1000 -1000 -1000 -1000 -1000 -1000 -1000 
-1000 -1000 -1000 -1000 -1000 -1000 -1000 -1000 -1000 
-1000 -1000 -1000 -1000 -1000 -1000 -1000 -1000 -1000 
-1000 -1000 -1000 -1000 -1000 -1000 -1000 -1000 -1000 
-1000 -1000 -1000 -1000 -1000 -1000 -1000 -1000 -1000 
-1000 -1000 -1000 -1000 -1000 -1000 -1000 -1000 -1000 
-1000 -1000 -1000 -1000 -1000 -1000 -1000 -1000 -1000 
-1000 -1000 -1000 -1000 -1000 -1000 -1000 -1000 -1000 
-1000 -1000 -1000 -1000 -1000 -1000 -1000 -1000 -1000 
-1000 -1000 -1000 -1000 -1000 -1000 -1000 -1000 -1000 
-1000 -1000 -1000 -1000 -1000 -1000 -1000 -1000 -1000 
-1000 -1000 -1000 -1000 -1000 -1000 -1000 -1000 -1000 
-1000 -1000 -1000 -1000 -1000 -1000 -1000 -1000 -1000 
-1000 -1000 -1000 -1000 -1000 -1000 -1000 -1000 -1000 
-1000 -1000 -1000 -1000 -1000 -1000 -1000 -1000 -1000 
-1000 -1000 -1000 -1000 -1000 -1000 -1000 -1000 -1000 
-1000 -1000 -1000 -1000 -1000 -1000 -1000 -1000 -1000 
-1000 -1000 -1000 -1000 -1000 -1000 -1000 -1000 -1000 
-1000 -1000 -1000 -1000 -1000 -1000 -1000 -1000 -1000 
-1000 -1000 -1000 -1000 -1000 -1000 -1000 -1000 -1000 
-1000 -1000 -1000 -1000 -1000 -1000 -1000 -1000 -1000 
-1000 -1000 -1000 -1000 -1000 -1000 -1000 -1000 -1000 
-1000 -1000 -1000 -1000 -1000 -1000 -1000 -1000 -1000 
-1000 -1000 -1000 -1000 -1000 -1000 -1000 -1000 -1000 
-1000 -1000 -1000 -1000 -1000 -1000 -1000 -1000 -1000 
-1000 -1000 -1000 -1000 -1000 -1000 -1000 -1000 -1000 
-1000 -1000 -1000 -1000 -1000 -1000 -1000 -1000 -1000 
-1000 -1000 -1000 -1000 -1000 -1000 -1000 -1000 -1000 
-1000 -1000 -1000 -1000 -1000 -1000 -1000 -1000 -1000 
-1000 -1000 -1000 -1000 -1000 -1000 -1000 -1000 -1000 
-1000 -1000 -1000 -1000 -1000 -1000 -1000 -1000 -1000 
-1000 -1000 -1000 -1000 -1000 -1000 -1000 -1000 -1000 
-1000 -1000 -1000 -1000 -1000 -1000 -1000 -1000 -1000 
-1000 -1000 -1000 -1000 -1000 -1000 -1000 -1000 -1000 
-1000 -1000 -1000 -1000 -1000 -1000 -1000 -1000 -1000 
-1000 -1000 -1000 -1000 -1000 -1000 -1000 -1000 -1000 
-1000 -1000 -1000 -1000 -1000 -1000 -1000 -1000 -1000 
-1000 -1000 -1000 -1000 -1000 -1000 -1000 -1000 -1000 
-1000 -1000 -1000 -1000 -1000 -1000 -1000 -1000 -1000 
-1000 -1000 -1000 -1000 -1000 -1000 -1000 -1000 -1000 
-1000 -1000 -1000 -1000 -1000 -1000 -1000 -1000 -1000 
-1000 -1000 -1000 -1000 -1000 -1000 -1000 -1000 -1000 
-1000 -1000 -1000 -1000 -1000 -1000 -1000 -1000 -1000 
-1000 -1000 -1000 -1000 -1000 -1000 -1000 -1000 -1000 
-1000 -1000 -1000 -1000 -1000 -1000 -1000 -1000 -1000 
-1000 -1000 -1000 -1000 -1000 -1000 -1000 -1000 -1000 
-1000 -1000 -1000 -1000 -1000 -1000 -1000 -1000 -1000 
-1000 -1000 -1000 -1000 -1000 -1000 -1000 -1000 -1000 
-1000 -1000 -1000 -1000 -1000 -1000 -1000 -1000 -1000 
-1000 -1000 -1000 -1000 -1000 -1000 -1000 -1000 -1000 
-1000 -1000 -1000 -1000 -1000 -1000 -1000 -1000 -1000 
-1000 -1000 -1000 -1000 -1000 -1000 -1000 -1000 -1000 
-1000 -1000 -1000 -1000 -1000 -1000 -1000 -1000 -1000 
-1000 -1000 -1000 -1000 -1000 -1000 -1000 -1000 -1000 
-1000 -1000 -1000 -1000 -1000 -1000 -1000 -1000 -1000 
-1000 -1000 -1000 -1000 -1000 -1000 -1000 -1000 -1000 
-1000 -1000 -1000 -1000 -1000 -1000 -1000 -1000 -1000 
-1000 -1000 -1000 -1000 -1000 -1000 -1000 -1000 -1000 
-1000 -1000 -1000 -1000 -1000 -1000 -1000 -1000 -1000 
-1000 -1000 -1000 -1000 -1000 -1000 -1000 -1000 -1000 
-1000 -1000 -1000 -1000 -1000 -1000 -1000 -1000 -1000 
-1000 -1000 -1000 -1000 -1000 -1000 -1000 -1000 -1000 
-1000 -1000 -1000 -1000 -1000 -1000 -1000 -1000 -1000 
-1000 -1000 -1000 -1000 -1000 -1000 -1000 -1000 -1000 
-1000 -1000 -1000 -1000 -1000 -1000 -1000 -1000 -1000 
-1000 -1000 -1000 -1000 -1000 -1000 -1000 -1000 -1000 
-1000 -1000 -1000 -1000 -1000 -1000 -1000 -1000 -1000 
-1000 -1000 -1000 -1000 -1000 -1000 -1000 -1000 -1000 
-1000 -1000 -1000 -1000 -1000 -1000 -1000 -1000 -1000 
-1000 -1000 -1000 -1000 -1000 -1000 -1000 -1000 -1000 
-1000 -1000 -1000 -1000 -1000 -1000 -1000 -1000 -1000 
-1000 -1000 -1000 -1000 -1000 -1000 -1000 -1000 -1000 
-1000 -1000 -1000 -1000 -1000 -1000 -1000 -1000 -1000 
-1000 -1000 -1000 -1000 -1000 -1000 -1000 -1000 -1000 
-1000 -1000 -1000 -1000 -1000 -1000 -1000 -1000 -1000 
-1000 -1000 -1000 -1000 -1000 -1000 -1000 -1000 -1000 
-1000 -1000 -1000 -1000 -1000 -1000 -1000 -1000 -1000 
-1000 -1000 -1000 -1000 -1000 -1000 -1000 -1000 -1000 
-1000 -1000 -1000 -1000 -1000 -1000 -1000 -1000 -1000 
-1000 -1000 -1000 -1000 -1000 -1000 -1000 -1000 -1000 
-1000 -1000 -1000 -1000 -1000 -1000 -1000 -1000 -1000 
-1000 -1000 -1000 -1000 -1000 -1000 -1000 -1000 -1000 
-1000 -1000 -1000 -1000 -1000 -1000 -1000 -1000 -1000 
-1000 -1000 -1000 -1000 -1000 -1000 -1000 -1000 -1000 
-1000 -1000 -1000 -1000 -1000 -1000 -1000 -1000 -1000 
-1000 -1000 -1000 -1000 -1000 -1000 -1000 -1000 -1000 
-1000 -1000 -1000 -1000 -1000 -1000 -1000 -1000 -1000 
-1000 -1000 -1000 -1000 -1000 -1000 -1000 -1000 -1000 
-1000 -1000 -1000 -1000 -1000 -1000 -1000 -1000 -1000 
-1000 -1000 -1000 -1000 -1000 -1000 -1000 -1000 -1000 
-1000 -1000 -1000 -1000 -1000 -1000 -1000 -1000 -1000 
-1000 -1000 -1000 -1000 -1000 -1000 -1000 -1000 -1000 
-1000 -1000 -1000 -1000 -1000 -1000 -1000 -1000 -1000 
-1000 -1000 -1000 -1000 -1000 -1000 -1000 -1000 -1000 
-1000 -1000 -1000 -1000 -1000 -1000 -1000 -1000 -1000 
-1000 -1000 -1000 -1000 -1000 -1000 -1000 -1000 -1000 
-1000 -1000 -1000 -1000 -1000 -1000 -1000 -1000 -1000 
-1000 -1000 -1000 -1000 -1000 -1000 -1000 -1000 -1000 
-1000 -1000 -1000 -1000 -1000 -1000 -1000 -1000 -1000 
-1000 -1000 -1000 -1000 -1000 -1000 -1000 -1000 -1000 
-1000 -1000 -1000 -1000 -1000 -1000 -1000 -1000 -1000 
-1000 -1000 -1000 -1000 -1000 -1000 -1000 -1000 -1000 
-1000 -1000 -1000 -1000 -1000 -1000 -1000 -1000 -1000 
-1000 -1000 -1000 -1000 -1000 -1000 -1000 -1000 -1000 
-1000 -1000 -1000 -1000 -1000 -1000 -1000 -1000 -1000 
-1000 -1000 -1000 -1000 -1000 -1000 -1000 -1000 -1000 
-1000 -1000 -1000 -1000 -1000 -1000 -1000 -1000 -1000 
-1000 -1000 -1000 -1000 -1000 -1000 -1000 -1000 -1000 
-1000 -1000 -1000 -1000 -1000 -1000 -1000 -1000 -1000 
-1000 -1000 -1000 -1000 -1000 -1000 -1000 -1000 -1000 
-1000 -1000 -1000 -1000 -1000 -1000 -1000 -1000 -1000 
-1000 -1000 -1000 -1000 -1000 -1000 -1000 -1000 -1000 
-1000 -1000 -1000 -1000 -1000 -1000 -1000 -1000 -1000 
-1000 -1000 -1000 -1000 -1000 -1000 -1000 -1000 -1000 
-1000 -1000 -1000 -1000 -1000 -1000 -1000 -1000 -1000 
-1000 -1000 -1000 -1000 -1000 -1000 -1000 -1000 -1000 
-1000 -1000 -1000 -1000 -1000 -1000 -1000 -1000 -1000 
-1000 -1000 -1000 -1000 -1000 -1000 -1000 -1000 -1000 
-1000 -1000 -1000 -1000 -1000 -1000 -1000 -1000 -1000 
-1000 -1000 -1000 -1000 -1000 -1000 -1000 -1000 -1000 
-1000 -1000 -1000 -1000 -1000 -1000 -1000 -1000 -1000 
-1000 -1000 -1000 -1000 -1000 -1000 -1000 -1000 -1000 
-1000 -1000 -1000 -1000 -1000 -1000 -1000 -1000 -1000 
-1000 -1000 -1000 -1000 -1000 -1000 -1000 -1000 -1000 
-1000 -1000 -1000 -1000 -1000 -1000 -1000 -1000 -1000 
-1000 -1000 -1000 -1000 -1000 -1000 -1000 -1000 -1000 
-1000 -1000 -1000 -1000 -1000 -1000 -1000 -1000 -1000 
-1000 -1000 -1000 -1000 -1000 -1000 -1000 -1000 -1000 
-1000 -1000 -1000 -1000 -1000 -1000 -1000 -1000 -1000 
-1000 -1000 -1000 -1000 -1000 -1000 -1000 -1000 -1000 
-1000 -1000 -1000 -1000 -1000 -1000 -1000 -1000 -1000 
-1000 -1000 -1000 -1000 -1000 -1000 -1000 -1000 -1000 
-1000 -1000 -1000 -1000 -1000 -1000 -1000 -1000 -1000 
-1000 -1000 -1000 -1000 -1000 -1000 -1000 -1000 -1000 
-1000 -1000 -1000 -1000 -1000 -1000 -1000 -1000 -1000 
-1000 -1000 -1000 -1000 -1000 -1000 -1000 -1000 -1000 
-1000 -1000 -1000 -1000 -1000 -1000 -1000 -1000 -1000 
-1000 -1000 -1000 -1000 -1000 -1000 -1000 -1000 -1000 
-1000 -1000 -1000 -1000 -1000 -1000 -1000 -1000 -1000 
-1000 -1000 -1000 -1000 -1000 -1000 -1000 -1000 -1000 
-1000 -1000 -1000 -1000 -1000 -1000 -1000 -1000 -1000 
-1000 -1000 -1000 -1000 -1000 -1000 -1000 -1000 -1000 
-1000 -1000 -1000 -1000 -1000 -1000 -1000 -1000 -1000 
-1000 -1000 -1000 -1000 -1000 -1000 -1000 -1000 -1000 
-1000 -1000 -1000 -1000 -1000 -1000 -1000 -1000 -1000 
-1000 -1000 -1000 -1000 -1000 -1000 -1000 -1000 -1000 
-1000 -1000 -1000 -1000 -1000 -1000 -1000 -1000 -1000 
-1000 -1000 -1000 -1000 -1000 -1000 -1000 -1000 -1000 
-1000 -1000 -1000 -1000 -1000 -1000 -1000 -1000 -1000 
-1000 -1000 -1000 -1000 -1000 -1000 -1000 -1000 -1000 
-1000 -1000 -1000 -1000 -1000 -1000 -1000 -1000 -1000 
-1000 -1000 -1000 -1000 -1000 -1000 -1000 -1000 -1000 
-1000 -1000 -1000 -1000 -1000 -1000 -1000 -1000 -1000 
-1000 -1000 -1000 -1000 -1000 -1000 -1000 -1000 -1000 
-1000 -1000 -1000 -1000 -1000 -1000 -1000 -1000 -1000 
-1000 -1000 -1000 -1000 -1000 -1000 -1000 -1000 -1000 
-1000 -1000 -1000 -1000 -1000 -1000 -1000 -1000 -1000 
-1000 -1000 -1000 -1000 -1000 -1000 -1000 -1000 -1000 
-1000 -1000 -1000 -1000 -1000 -1000 -1000 -1000 -1000 
-1000 -1000 -1000 -1000 -1000 -1000 -1000 -1000 -1000 
-1000 -1000 -1000 -1000 -1000 -1000 -1000 -1000 -1000 
-1000 -1000 -1000 -1000 -1000 -1000 -1000 -1000 -1000 
-1000 -1000 -1000 -1000 -1000 -1000 -1000 -1000 -1000 
-1000 -1000 -1000 -1000 -1000 -1000 -1000 -1000 -1000 
-1000 -1000 -1000 -1000 -1000 -1000 -1000 -1000 -1000 
-1000 -1000 -1000 -1000 -1000 -1000 -1000 -1000 -1000 
-1000 -1000 -1000 -1000 -1000 -1000 -1000 -1000 -1000 
-1000 -1000 -1000 -1000 -1000 -1000 -1000 -1000 -1000 
-1000 -1000 -1000 -1000 -1000 -1000 -1000 -1000 -1000 
-1000 -1000 -1000 -1000 -1000 -1000 -1000 -1000 -1000 
-1000 -1000 -1000 -1000 -1000 -1000 -1000 -1000 -1000 
-1000 -1000 -1000 -1000 -1000 -1000 -1000 -1000 -1000 
-1000 -1000 -1000 -1000 -1000 -1000 -1000 -1000 -1000 
-1000 -1000 -1000 -1000 -1000 -1000 -1000 -1000 -1000 
-1000 -1000 -1000 -1000 -1000 -1000 -1000 -1000 -1000 
-1000 -1000 -1000 -1000 -1000 -1000 -1000 -1000 -1000 
-1000 -1000 -1000 -1000 -1000 -1000 -1000 -1000 -1000 
-1000 -1000 -1000 -1000 -1000 -1000 -1000 -1000 -1000 
-1000 -1000 -1000 -1000 -1000 -1000 -1000 -1000 -1000 
-1000 -1000 -1000 -1000 -1000 -1000 -1000 -1000 -1000 
-1000 -1000 -1000 -1000 -1000 -1000 -1000 -1000 -1000 
-1000 -1000 -1000 -1000 -1000 -1000 -1000 -1000 -1000 
-1000 -1000 -1000 -1000 -1000 -1000 -1000 -1000 -1000 
-1000 -1000 -1000 -1000 -1000 -1000 -1000 -1000 -1000 
-1000 -1000 -1000 -1000 -1000 -1000 -1000 -1000 -1000 
-1000 -1000 -1000 -1000 -1000 -1000 -1000 -1000 -1000 
-1000 -1000 -1000 -1000 -1000 -1000 -1000 -1000 -1000 
-1000 -1000 -1000 -1000 -1000 -1000 -1000 -1000 -1000 
-1000 -1000 -1000 -1000 -1000 -1000 -1000 -1000 -1000 
-1000 -1000 -1000 -1000 -1000 -1000 -1000 -1000 -1000 
-1000 -1000 -1000 -1000 -1000 -1000 -1000 -1000 -1000 
-1000 -1000 -1000 -1000 -1000 -1000 -1000 -1000 -1000 
-1000 -1000 -1000 -1000 -1000 -1000 -1000 -1000 -1000 
-1000 -1000 -1000 -1000 -1000 -1000 -1000 -1000 -1000 
-1000 -1000 -1000 -1000 -1000 -1000 -1000 -1000 -1000 
-1000 -1000 -1000 -1000 -1000 -1000 -1000 -1000 -1000 
-1000 -1000 -1000 -1000 -1000 -1000 -1000 -1000 -1000 
-1000 -1000 -1000 -1000 -1000 -1000 -1000 -1000 -1000 
-1000 -1000 -1000 -1000 -1000 -1000 -1000 -1000 -1000 
-1000 -1000 -1000 -1000 -1000 -1000 -1000 -1000 -1000 
-1000 -1000 -1000 -1000 -1000 -1000 -1000 -1000 -1000 
-1000 -1000 -1000 -1000 -1000 -1000 -1000 -1000 -1000 
-1000 -1000 -1000 -1000 -1000 -1000 -1000 -1000 -1000 
-1000 -1000 -1000 -1000 -1000 -1000 -1000 -1000 -1000 
-1000 -1000 -1000 -1000 -1000 -1000 -1000 -1000 -1000 
-1000 -1000 -1000 -1000 -1000 -1000 -1000 -1000 -1000 
-1000 -1000 -1000 -1000 -1000 -1000 -1000 -1000 -1000 
-1000 -1000 -1000 -1000 -1000 -1000 -1000 -1000 -1000 
-1000 -1000 -1000 -1000 -1000 -1000 -1000 -1000 -1000 
-1000 -1000 -1000 -1000 -1000 -1000 -1000 -1000 -1000 
-1000 -1000 -1000 -1000 -1000 -1000 -1000 -1000 -1000 
-1000 -1000 -1000 -1000 -1000 -1000 -1000 -1000 -1000 
-1000 -1000 -1000 -1000 -1000 -1000 -1000 -1000 -1000 
-1000 -1000 -1000 -1000 -1000 -1000 -1000 -1000 -1000 
-1000 -1000 -1000 -1000 -1000 -1000 -1000 -1000 -1000 
-1000 -1000 -1000 -1000 -1000 -1000 -1000 -1000 -1000 
-1000 -1000 -1000 -1000 -1000 -1000 -1000 -1000 -1000 
-1000 -1000 -1000 -1000 -1000 -1000 -1000 -1000 -1000 
-1000 -1000 -1000 -1000 -1000 -1000 -1000 -1000 -1000 
-1000 -1000 -1000 -1000 -1000 -1000 -1000 -1000 -1000 
-1000 -1000 -1000 -1000 -1000 -1000 -1000 -1000 -1000 
-1000 -1000 -1000 -1000 -1000 -1000 -1000 -1000 -1000 
-1000 -1000 -1000 -1000 -1000 -1000 -1000 -1000 -1000 
-1000 -1000 -1000 -1000 -1000 -1000 -1000 -1000 -1000 
-1000 -1000 -1000 -1000 -1000 -1000 -1000 -1000 -1000 
-1000 -1000 -1000 -1000 -1000 -1000 -1000 -1000 -1000 
-1000 -1000 -1000 -1000 -1000 -1000 -1000 -1000 -1000 
-1000 -1000 -1000 -1000 -1000 -1000 -1000 -1000 -1000 
-1000 -1000 -1000 -1000 -1000 -1000 -1000 -1000 -1000 
-1000 -1000 -1000 -1000 -1000 -1000 -1000 -1000 -1000 
-1000 -1000 -1000 -1000 -1000 -1000 -1000 -1000 -1000 
-1000 -1000 -1000 -1000 -1000 -1000 -1000 -1000 -1000 
-1000 -1000 -1000 -1000 -1000 -1000 -1000 -1000 -1000 
-1000 -1000 -1000 -1000 -1000 -1000 -1000 -1000 -1000 
-1000 -1000 -1000 -1000 -1000 -1000 -1000 -1000 -1000 
-1000 -1000 -1000 -1000 -1000 -1000 -1000 -1000 -1000 
-1000 -1000 -1000 -1000 -1000 -1000 -1000 -1000 -1000 
-1000 -1000 -1000 -1000 -1000 -1000 -1000 -1000 -1000 
-1000 -1000 -1000 -1000 -1000 -1000 -1000 -1000 -1000 
-1000 -1000 -1000 -1000 -1000 -1000 -1000 -1000 -1000 
-1000 -1000 -1000 -1000 -1000 -1000 -1000 -1000 -1000 
-1000 -1000 -1000 -1000 -1000 -1000 -1000 -1000 -1000 
-1000 -1000 -1000 -1000 -1000 -1000 -1000 -1000 -1000 
-1000 -1000 -1000 -1000 -1000 -1000 -1000 -1000 -1000 
-1000 -1000 -1000 -1000 -1000 -1000 -1000 -1000 -1000 
-1000 -1000 -1000 -1000 -1000 -1000 -1000 -1000 -1000 
-1000 -1000 -1000 -1000 -1000 -1000 -1000 -1000 -1000 
-1000 -1000 -1000 -1000 -1000 -1000 -1000 -1000 -1000 
-1000 -1000 -1000 -1000 -1000 -1000 -1000 -1000 -1000 
-1000 -1000 -1000 -1000 -1000 -1000 -1000 -1000 -1000 
-1000 -1000 -1000 -1000 -1000 -1000 -1000 -1000 -1000 
-1000 -1000 -1000 -1000 -1000 -1000 -1000 -1000 -1000 
-1000 -1000 -1000 -1000 -1000 -1000 -1000 -1000 -1000 
-1000 -1000 -1000 -1000 -1000 -1000 -1000 -1000 -1000 
-1000 -1000 -1000 -1000 -1000 -1000 -1000 -1000 -1000 
-1000 -1000 -1000 -1000 -1000 -1000 -1000 -1000 -1000 
-1000 -1000 -1000 -1000 -1000 -1000 -1000 -1000 -1000 
-1000 -1000 -1000 -1000 -1000 -1000 -1000 -1000 -1000 
-1000 -1000 -1000 -1000 -1000 -1000 -1000 -1000 -1000 