# vtk DataFile Version 3.0
vtk output
ASCII
DATASET POLYDATA
POINTS 17746 float
-69.5282 -10.1959 -7.15668 -68.6552 -10.7881 -6.70475 -68.4302 -10.2488 -6.89096 
-70.5595 -10.4598 -7.16512 -69.5188 -10.9922 -6.76017 -70.4264 -11.0248 -6.83238 
-67.8952 -8.95345 -7.23487 -66.9921 -9.38344 -6.84577 -66.9548 -8.57707 -7.08208 
-68.934 -9.41584 -7.33883 -67.6966 -9.85494 -6.86311 -70.1058 -9.37908 -7.60781 
-70.8948 -9.65969 -7.58054 -71.2365 -10.6453 -7.07024 -71.8969 -9.90406 -7.44602 
-72.9219 -9.80243 -7.3444 -72.1539 -10.4804 -7.08372 -73.1308 -10.1695 -7.08142 
-68.0809 -7.8521 -7.61377 -66.993 -7.75724 -7.32957 -69.153 -8.33177 -7.72654 
-70.2191 -8.59603 -7.85854 -71.2179 -8.78251 -7.93252 -72.2006 -8.93517 -7.85323 
-73.1645 -9.05496 -7.62864 -73.9644 -9.28356 -7.25459 -67.6374 -6.80067 -7.81773 
-66.5282 -7.28285 -7.32433 -66.5796 -6.62928 -7.56058 -68.8357 -6.90675 -8.05425 
-69.5876 -7.30252 -8.07416 -70.5566 -7.6264 -8.1429 -71.5662 -7.84258 -8.17644 
-72.3578 -8.09622 -8.10792 -73.4877 -7.95256 -7.88106 -74.1306 -8.37916 -7.52122 
-67.226 -5.77792 -8.04207 -66.192 -6.12852 -7.58593 -66.3811 -5.26466 -7.89539 
-68.3116 -5.7814 -8.30757 -69.0806 -6.07225 -8.32608 -70.0717 -6.30511 -8.3768 
-71.0532 -6.60714 -8.39131 -71.8257 -6.9742 -8.35676 -73.1216 -6.92125 -8.21877 
-74.4124 -6.84149 -7.78102 -74.656 -7.51905 -7.47602 -67.5111 -4.65598 -8.4369 
-66.6896 -4.23252 -8.22687 -68.4734 -4.93849 -8.58163 -69.4348 -5.14554 -8.63515 
-70.4378 -5.31322 -8.62354 -71.5368 -5.51427 -8.58822 -72.6778 -5.89309 -8.4774 
-73.9193 -5.77812 -8.29367 -74.4275 -6.11654 -8.01866 -67.8744 -3.62259 -8.74265 
-67.1306 -3.20495 -8.50601 -68.811 -3.93219 -8.88271 -69.8165 -4.18958 -8.89031 
-70.6035 -4.48108 -8.81714 -71.8727 -4.32296 -8.73265 -72.9735 -4.68782 -8.5834 
-74.0753 -4.89524 -8.3983 -68.2689 -2.66339 -8.92695 -67.7165 -2.24063 -8.69625 
-69.1496 -2.93308 -9.07922 -70.2014 -3.16861 -9.08029 -71.3645 -3.45623 -8.9185 
-72.6333 -3.29034 -8.72026 -73.3843 -3.64244 -8.58205 -74.1536 -4.01782 -8.46645 
-68.6335 -1.92943 -8.958 -68.5062 -1.49333 -8.79937 -69.4183 -2.03247 -9.09226 
-70.459 -2.18937 -9.12319 -71.5461 -2.38508 -9.00741 -72.6751 -2.49425 -8.78178 
-69.5371 -1.28582 -8.94382 -70.6725 -1.31455 -9.00007 -71.7944 -1.47171 -8.94772 
-72.6703 -1.72705 -8.82388 -68.2668 -13.1051 -5.73876 -67.5087 -13.7037 -5.45552 
-67.2468 -13.129 -5.61339 -69.3594 -13.45 -5.70499 -68.3057 -14.0105 -5.42059 
-70.4132 -13.6464 -5.66061 -69.3173 -14.2673 -5.37227 -71.4054 -13.7401 -5.58201 
-70.3783 -14.3647 -5.32455 -71.3199 -14.2699 -5.30654 -66.3879 -11.7391 -5.95339 
-65.6897 -12.2333 -5.70923 -65.4669 -11.5672 -5.8828 -67.5057 -12.3121 -5.92468 
-66.4646 -12.7145 -5.65526 -68.6496 -12.271 -6.08446 -69.5373 -12.5721 -6.04999 
-70.6045 -12.8016 -6.01816 -71.6932 -12.9691 -5.96544 -72.0829 -13.8325 -5.46943 
-72.7309 -13.1642 -5.82347 -72.8469 -13.6374 -5.52606 -65.6851 -10.6978 -6.18532 
-64.8986 -11.1069 -5.96897 -64.7319 -10.4402 -6.15517 -66.7007 -10.9814 -6.25042 
-67.2998 -11.4834 -6.17924 -68.3978 -11.503 -6.34705 -69.761 -11.666 -6.43753 
-70.8869 -11.9023 -6.37535 -72.039 -12.0411 -6.34105 -73.1769 -12.2176 -6.27377 
-73.6424 -13.1938 -5.74529 -74.3252 -12.4257 -6.11692 -75.4374 -12.3126 -5.98557 
-74.64 -13.0007 -5.73982 -75.7802 -12.6628 -5.57525 -65.011 -9.59819 -6.40212 
-64.1796 -9.96708 -6.22196 -64.0615 -9.31115 -6.33819 -65.8169 -9.92033 -6.43392 
-66.6228 -10.1346 -6.51363 -67.6468 -10.7442 -6.50673 -71.1421 -11.1513 -6.74669 
-72.42 -11.0318 -6.73717 -73.574 -11.1858 -6.62233 -74.6931 -11.3703 -6.50267 
-75.7156 -11.5451 -6.2502 -76.3945 -11.8019 -5.8172 -64.4331 -8.53874 -6.50692 
-63.5736 -8.80505 -6.32302 -63.5923 -7.97138 -6.40793 -65.3183 -8.67763 -6.6497 
-66.0729 -9.21022 -6.67683 -73.9044 -10.1835 -6.91785 -75.0817 -10.1753 -6.73951 
-76.0379 -10.5221 -6.47553 -77.0002 -10.6741 -5.9412 -64.4995 -7.48646 -6.68258 
-63.7117 -6.99706 -6.55557 -65.162 -7.95507 -6.76447 -66.0577 -8.08019 -6.95985 
-74.9573 -9.23949 -6.94852 -75.7537 -9.17487 -6.75104 -76.3544 -9.47646 -6.54975 
-77.0371 -9.74845 -6.22643 -64.5972 -6.49043 -6.90311 -63.8709 -6.18871 -6.74354 
-65.6058 -6.99817 -7.11832 -75.054 -8.20855 -7.12335 -75.7217 -8.50918 -6.82497 
-64.5194 -5.43314 -7.13479 -63.5613 -5.64234 -6.82125 -63.7868 -4.79051 -7.09301 
-65.4496 -5.85927 -7.37301 -75.2275 -6.7663 -7.35975 -75.4682 -7.25226 -7.11377 
-64.8764 -4.28137 -7.49909 -64.166 -3.73322 -7.37918 -65.6116 -4.80549 -7.683 
-75.1955 -5.17703 -8.03646 -75.4595 -6.00816 -7.55969 -65.3406 -3.20101 -7.7896 
-64.6565 -2.66729 -7.63057 -65.9967 -3.73603 -7.99613 -75.46 -3.95091 -8.28547 
-76.3093 -5.22911 -7.59104 -76.802 -4.33692 -7.90551 -78.0039 -4.17869 -7.67374 
-77.6313 -4.94208 -7.21226 -78.5814 -4.28766 -7.33066 -65.9562 -2.11004 -8.04125 
-65.2215 -1.59577 -7.86371 -66.5708 -2.66686 -8.26272 -73.773 -2.65198 -8.57422 
-74.8887 -3.02678 -8.44146 -76.186 -2.92861 -8.372 -77.0324 -3.25703 -8.23589 
-78.0569 -3.47412 -7.98466 -78.8792 -3.64647 -7.61629 -66.6236 -1.00303 -8.25297 
-65.813 -0.526653 -8.08243 -67.5275 -1.4865 -8.49869 -73.9527 -1.59927 -8.62174 
-75.1288 -1.91109 -8.49514 -76.2742 -2.09226 -8.45298 -77.3847 -2.24899 -8.39449 
-78.3545 -2.50841 -8.21181 -79.1833 -2.78296 -7.8776 -67.2192 0.0648066 -8.43017 
-66.4151 0.500086 -8.27345 -68.2146 -0.295809 -8.5977 -69.3736 -0.58834 -8.76324 
-70.8663 -0.504548 -8.8514 -72.1048 -0.59513 -8.83313 -73.3482 -0.824546 -8.73107 
-74.6451 -0.6697 -8.6091 -75.4587 -0.923923 -8.55301 -76.5142 -1.11151 -8.53473 
-77.6374 -1.25337 -8.52727 -78.8562 -1.39619 -8.40311 -79.5234 -1.86464 -8.09983 
-67.6964 1.01969 -8.56355 -66.9897 1.27964 -8.40906 -68.7429 0.766093 -8.73612 
-69.9217 0.514414 -8.81403 -71.1727 0.371398 -8.82552 -72.4124 0.282871 -8.7995 
-73.5826 0.159467 -8.74291 -74.7236 0.0716389 -8.67081 -75.7732 -0.0162465 -8.62134 
-76.7776 -0.150569 -8.62059 -77.8412 -0.269219 -8.65014 -78.9579 -0.370391 -8.6229 
-79.9304 -1.13277 -8.24749 -80.0986 -0.41567 -8.43013 -80.5626 -0.730651 -8.15759 
-67.8706 1.70594 -8.60576 -68.4283 2.41596 -8.77633 -69.0891 1.82357 -8.86981 
-70.3704 1.52783 -8.96721 -71.5907 1.32346 -8.93752 -72.7698 1.18112 -8.87161 
-73.8918 1.06344 -8.80736 -74.9666 0.95864 -8.75078 -76.0051 0.86853 -8.71306 
-77.0198 0.779339 -8.71456 -78.0437 0.687464 -8.7553 -79.094 0.593866 -8.77317 
-80.1332 0.496709 -8.64096 -80.9499 -0.232858 -8.13899 -81.0275 0.392998 -8.27031 
-81.5778 0.141892 -7.67294 -69.7589 2.86203 -9.09445 -68.9724 3.28051 -8.97981 
-70.7904 2.51647 -9.15869 -71.9725 2.27229 -9.11547 -73.1235 2.09635 -9.01672 
-74.2106 1.96267 -8.92627 -75.2439 1.85528 -8.86214 -76.2462 1.76728 -8.82691 
-77.2371 1.69302 -8.82932 -78.2357 1.62248 -8.86864 -79.2492 1.54251 -8.89475 
-80.2522 1.43266 -8.78051 -81.1582 1.26117 -8.38669 -81.827 0.9729 -7.71094 
-70.1496 3.72445 -9.24681 -69.4612 3.96364 -9.13297 -71.1584 3.47759 -9.34163 
-72.3001 3.21368 -9.30615 -73.4309 3.01181 -9.19339 -74.4972 2.86219 -9.08158 
-75.5037 2.74979 -9.0057 -76.4756 2.66461 -8.97021 -77.4382 2.59864 -8.97522 
-78.4097 2.54299 -9.01427 -79.398 2.48148 -9.03909 -80.3848 2.38314 -8.92278 
-81.2976 2.20052 -8.50222 -82.0234 1.87563 -7.72853 -70.2345 4.35527 -9.30529 
-70.6031 5.07164 -9.46961 -71.3416 4.49379 -9.4915 -72.5639 4.16859 -9.48601 
-73.6878 3.93329 -9.38068 -74.7398 3.76581 -9.26281 -75.7289 3.6455 -9.18146 
-76.6781 3.56087 -9.14713 -77.6154 3.50195 -9.15631 -78.5586 3.45475 -9.19753 
-79.5191 3.4105 -9.22537 -80.4957 3.34186 -9.11662 -81.4263 3.17889 -8.68627 
-82.1904 2.85023 -7.84177 -71.7791 5.6804 -9.76721 -70.7925 5.85391 -9.6833 
-72.8235 5.1707 -9.68794 -73.9051 4.87861 -9.5827 -74.9402 4.68696 -9.47019 
-75.9164 4.55465 -9.39161 -76.8477 4.46239 -9.35873 -77.7602 4.40634 -9.36581 
-78.6804 4.3684 -9.39974 -79.5934 4.31354 -9.42655 -80.5338 4.28733 -9.34955 
-81.5075 4.20318 -8.96703 -82.3486 3.89814 -8.10021 -71.354 6.67005 -10.0063 
-70.3571 6.36404 -9.79386 -70.4476 7.19673 -10.0734 -72.3721 6.57252 -10.0554 
-73.1159 6.16452 -9.93679 -74.0977 5.84979 -9.81392 -75.0995 5.63834 -9.70487 
-76.0658 5.49234 -9.63153 -76.9901 5.38414 -9.59606 -77.8642 5.29759 -9.58583 
-78.7512 5.28212 -9.58912 -79.6734 5.24143 -9.58589 -80.4293 5.05501 -9.53006 
-81.4205 5.28675 -9.3139 -82.492 5.07282 -8.55506 -71.4299 7.74063 -10.3154 
-70.6419 8.18236 -10.3463 -72.3501 7.40406 -10.2793 -73.2959 7.10986 -10.194 
-74.2367 6.82771 -10.0639 -75.207 6.61886 -9.9455 -76.1667 6.46434 -9.86711 
-77.0967 6.34152 -9.8251 -77.986 6.22022 -9.78384 -78.6933 6.03741 -9.73208 
-79.6718 6.2965 -9.68426 -80.7331 6.02592 -9.57324 -81.6717 6.23407 -9.41582 
-82.2516 5.95012 -9.11644 -71.523 8.66137 -10.5172 -70.9258 8.9438 -10.5111 
-72.3833 8.38146 -10.4961 -73.3476 8.07017 -10.4123 -74.2915 7.78311 -10.2862 
-75.2301 7.59848 -10.143 -76.1926 7.4662 -10.0273 -77.1348 7.32077 -9.9684 
-78.0566 7.19497 -9.91448 -79.0344 7.02687 -9.79855 -79.9695 7.28092 -9.66752 
-80.6744 7.04411 -9.59391 -81.4222 6.82674 -9.50109 -71.52 9.33657 -10.5995 
-71.8876 10.0045 -10.618 -72.3664 9.383 -10.6083 -73.366 9.05362 -10.5312 
-74.339 8.73674 -10.3969 -75.1115 8.4065 -10.262 -76.0997 8.53987 -10.0583 
-77.1015 8.29066 -9.94934 -78.0131 8.14508 -9.9083 -78.893 8.02374 -9.83466 
-79.7654 8.01222 -9.70987 -72.6419 10.1817 -10.5867 -72.4161 10.6621 -10.5627 
-73.3706 9.97482 -10.5161 -74.3474 9.69847 -10.3704 -75.3952 9.33144 -10.1605 
-76.3428 9.45354 -9.89703 -77.0733 9.22056 -9.80998 -77.951 9.04274 -9.78213 
-78.8239 8.91332 -9.78068 -79.5403 8.73328 -9.7411 -73.2666 10.7662 -10.4644 
-74.2561 10.6099 -10.3043 -75.2578 10.3313 -10.1085 -76.0581 10.0438 -9.9169 
-69.1914 -17.472 -4.55639 -68.5741 -18.0404 -4.20526 -68.2199 -17.5273 -4.40003 
-70.2625 -17.7655 -4.53349 -69.4168 -18.2698 -4.18284 -71.1868 -17.9442 -4.44836 
-70.4122 -18.4294 -4.15272 -71.1946 -18.4403 -4.13066 -29.4431 -9.28743 -11.6965 
[...]
POINT_DATA 17746
SCALARS scalars float
LOOKUP_TABLE default
-1000 -1000 -1000 -1000 -1000 -1000 -1000 -1000 -1000 
-1000 -1000 -1000 -1000 -1000 -1000 -1000 -1000 -1000 
-1000 -1000 -1000 -1000 -1000 -1000 -1000 -1000 -1000 
-1000 -1000 -1000 -1000 -1000 -1000 -1000 -1000 -1000 
-1000 -1000 -1000 -1000 -1000 -1000 -1000 -1000 -1000 
-1000 -1000 -1000 -1000 -1000 -1000 -1000 -1000 -1000 
-1000 -1000 -1000 -1000 -1000 -1000 -1000 -1000 -1000 
-1000 -1000 -1000 -1000 -1000 -1000 -1000 -1000 -1000 
-1000 -1000 -1000 -1000 -1000 -1000 -1000 -1000 -1000 
-1000 -1000 -1000 -1000 -1000 -1000 -1000 -1000 -1000 
-1000 -1000 -1000 -1000 -1000 -1000 -1000 -1000 -1000 
-1000 -1000 -1000 -1000 -1000 -1000 -1000 -1000 -1000 
-1000 -1000 -1000 -1000 -1000 -1000 -1000 -1000 -1000 
-1000 -1000 -1000 -1000 -1000 -1000 -1000 -1000 -1000 
-1000 -1000 -1000 -1000 -1000 -1000 -1000 -1000 -1000 
-1000 -1000 -1000 -1000 -1000 -1000 -1000 -1000 -1000 
-1000 -1000 -1000 -1000 -1000 -1000 -1000 -1000 -1000 
-1000 -1000 -1000 -1000 -1000 -1000 -1000 -1000 -1000 
-1000 -1000 -1000 -1000 -1000 -1000 -1000 -1000 -1000 
-1000 -1000 -1000 -1000 -1000 -1000 -1000 -1000 -1000 
-1000 -1000 -1000 -1000 -1000 -1000 -1000 -1000 -1000 
-1000 -1000 -1000 -1000 -1000 -1000 -1000 -1000 -1000 
-1000 -1000 -1000 -1000 -1000 -1000 -1000 -1000 -1000 
-1000 -1000 -1000 -1000 -1000 -1000 -1000 -1000 -1000 
-1000 -1000 -1000 -1000 -1000 -1000 -1000 -1000 -1000 
-1000 -1000 -1000 -1000 -1000 -1000 -1000 -1000 -1000 
-1000 -1000 -1000 -1000 -1000 -1000 -1000 -1000 -1000 
-1000 -1000 -1000 -1000 -1000 -1000 -1000 -1000 -1000 
-1000 -1000 -1000 -1000 -1000 -1000 -1000 -1000 -1000 
-1000 -1000 -1000 -1000 -1000 -1000 -1000 -1000 -1000 
-1000 -1000 -1000 -1000 -1000 -1000 -1000 -1000 -1000 
-1000 -1000 -1000 -1000 -1000 -1000 -1000 -1000 -1000 
-1000 -1000 -1000 -1000 -1000 -1000 -1000 -1000 -1000 
-1000 -1000 -1000 -1000 -1000 -1000 -1000 -1000 -1000 
-1000 -1000 -1000 -1000 -1000 -1000 -1000 -1000 -1000 
-1000 -1000 -1000 -1000 -1000 -1000 -1000 -1000 -1000 
-1000 -1000 -1000 -1000 -1000 -1000 -1000 -1000 -1000 
-1000 -1000 -1000 -1000 -1000 -1000 -1000 -1000 -1000 
-1000 -1000 -1000 -1000 -1000 -1000 -1000 -1000 -1000 
-1000 -1000 -1000 -1000 -1000 -1000 -1000 -1000 -1000 
-1000 -1000 -1000 -1000 -1000 -1000 -1000 -1000 -1000 
-1000 -1000 -1000 -1000 -1000 -1000 -1000 -1000 -1000 
-1000 -1000 -1000 -1000 -1000 -1000 -1000 -1000 -1000 
-1000 -1000 -1000 -1000 -1000 -1000 -1000 -1000 -1000 
-1000 -1000 -1000 -1000 -1000 -1000 -1000 -1000 -1000 
-1000 -1000 -1000 -1000 -1000 -1000 -1000 -1000 -1000 
-1000 -1000 -1000 -1000 -1000 -1000 -1000 -1000 -1000 
-1000 -1000 -1000 -1000 -1000 -1000 -1000 -1000 -1000 
-1000 -1000 -1000 -1000 -1000 -1000 -1000 -1000 -1000 
-1000 -1000 -1000 -1000 -1000 -1000 -1000 -1000 -1000 
-1000 -1000 -1000 -1000 -1000 -1000 -1000 -1000 -1000 
-1000 -1000 -1000 -1000 -1000 -1000 -1000 -1000 -1000 
-1000 -1000 -1000 -1000 -1000 -1000 -1000 -1000 -1000 
-1000 -1000 -1000 -1000 -1000 -1000 -1000 -1000 -1000 
-1000 -1000 -1000 -1000 -1000 -1000 -1000 -1000 -1000 
-1000 -1000 -1000 -1000 -1000 -1000 -1000 -1000 -1000 
-1000 -1000 -1000 -1000 -1000 -1000 -1000 -1000 -1000 
-1000 -1000 -1000 -1000 -1000 -1000 -1000 -1000 -1000 
-1000 -1000 -1000 -1000 -1000 -1000 -1000 -1000 -1000 
-1000 -1000 -1000 -1000 -1000 -1000 -1000 -1000 -1000 
-1000 -1000 -1000 -1000 -1000 -1000 -1000 -1000 -1000 
-1000 -1000 -1000 -1000 -1000 -1000 -1000 -1000 -1000 
-1000 -1000 -1000 -1000 -1000 -1000 -1000 -1000 -1000 
-1000 -1000 -1000 -1000 -1000 -1000 -1000 -1000 -1000 
-1000 -1000 -1000 -1000 -1000 -1000 -1000 -1000 -1000 
-1000 -1000 -1000 -1000 -1000 -1000 -1000 -1000 -1000 
-1000 -1000 -1000 -1000 -1000 -1000 -1000 -1000 -1000 
-1000 -1000 -1000 -1000 -1000 -1000 -1000 -1000 -1000 
-1000 -1000 -1000 -1000 -1000 -1000 -1000 -1000 -1000 
-1000 -1000 -1000 -1000 -1000 -1000 -1000 -1000 -1000 
-1000 -1000 -1000 -1000 -1000 -1000 -1000 -1000 -1000 
-1000 -1000 -1000 -1000 -1000 -1000 -1000 -1000 -1000 
-1000 -1000 -1000 -1000 -1000 -1000 -1000 -1000 -1000 
-1000 -1000 -1000 -1000 -1000 -1000 -1000 -1000 -1000 
-1000 -1000 -1000 -1000 -1000 -1000 -1000 -1000 -1000 
-1000 -1000 -1000 -1000 -1000 -1000 -1000 -1000 -1000 
-1000 -1000 -1000 -1000 -1000 -1000 -1000 -1000 -1000 
-1000 -1000 -1000 -1000 -1000 -1000 -1000 -1000 -1000 
-1000 -1000 -1000 -1000 -1000 -1000 -1000 -1000 -1000 
-1000 -1000 -1000 -1000 -1000 -1000 -1000 -1000 -1000 
-1000 -1000 -1000 -1000 -1000 -1000 -1000 -1000 -1000 
-1000 -1000 -1000 -1000 -1000 -1000 -1000 -1000 -1000 
-1000 -1000 -1000 -1000 -1000 -1000 -1000 -1000 -1000 
-1000 -1000 -1000 -1000 -1000 -1000 -1000 -1000 -1000 
-1000 -1000 -1000 -1000 -1000 -1000 -1000 -1000 -1000 
-1000 -1000 -1000 -1000 -1000 -1000 -1000 -1000 -1000 
-1000 -1000 -1000 -1000 -1000 -1000 -1000 -1000 -1000 
-1000 -1000 -1000 -1000 -1000 -1000 -1000 -1000 -1000 
-1000 -1000 -1000 -1000 -1000 -1000 -1000 -1000 -1000 
-1000 -1000 -1000 -1000 -1000 -1000 -1000 -1000 -1000 
-1000 -1000 -1000 -1000 -1000 -1000 -1000 -1000 -1000 
-1000 -1000 -1000 -1000 -1000 -1000 -1000 -1000 -1000 
-1000 -1000 -1000 -1000 -1000 -1000 -1000 -1000 -1000 
-1000 -1000 -1000 -1000 -1000 -1000 -1000 -1000 -1000 
-1000 -1000 -1000 -1000 -1000 -1000 -1000 -1000 -1000 
-1000 -1000 -1000 -1000 -1000 -1000 -1000 -1000 -1000 
-1000 -1000 -1000 -1000 -1000 -1000 -1000 -1000 -1000 
-1000 -1000 -1000 -1000 -1000 -1000 -1000 -1000 -1000 
-1000 -1000 -1000 -1000 -1000 -1000 -1000 -1000 -1000 
-1000 -1000 -1000 -1000 -1000 -1000 -1000 -1000 -1000 
-1000 -1000 -1000 -1000 -1000 -1000 -1000 -1000 -1000 
-1000 -1000 -1000 -1000 -1000 -1000 -1000 -1000 -1000 
-1000 -1000 -1000 -1000 -1000 -1000 -1000 -1000 -1000 
-1000 -1000 -1000 -1000 -1000 -1000 -1000 -1000 -1000 
-1000 -1000 -1000 -1000 -1000 -1000 -1000 -1000 -1000 
-1000 -1000 -1000 -1000 -1000 -1000 -1000 -1000 -1000 
-1000 -1000 -1000 -1000 -1000 -1000 -1000 -1000 -1000 
-1000 -1000 -1000 -1000 -1000 -1000 -1000 -1000 -1000 
-1000 -1000 -1000 -1000 -1000 -1000 -1000 -1000 -1000 
-1000 -1000 -1000 -1000 -1000 -1000 -1000 -1000 -1000 
-1000 -1000 -1000 -1000 -1000 -1000 -1000 -1000 -1000 
-1000 -1000 -1000 -1000 -1000 -1000 -1000 -1000 -1000 
-1000 -1000 -1000 -1000 -1000 -1000 -1000 -1000 -1000 
-1000 -1000 -1000 -1000 -1000 -1000 -1000 -1000 -1000 
-1000 -1000 -1000 -1000 -1000 -1000 -1000 -1000 -1000 
-1000 -1000 -1000 -1000 -1000 -1000 -1000 -1000 -1000 
-1000 -1000 -1000 -1000 -1000 -1000 -1000 -1000 -1000 
-1000 -1000 -1000 -1000 -1000 -1000 -1000 -1000 -1000 
-1000 -1000 -1000 -1000 -1000 -1000 -1000 -1000 -1000 
-1000 -1000 -1000 -1000 -1000 -1000 -1000 -1000 -1000 
-1000 -1000 -1000 -1000 -1000 -1000 -1000 -1000 -1000 
-1000 -1000 -1000 -1000 -1000 -1000 -1000 -1000 -1000 
-1000 -1000 -1000 -1000 -1000 -1000 -1000 -1000 -1000 
-1000 -1000 -1000 -1000 -1000 -1000 -1000 -1000 -1000 
-1000 -1000 -1000 -1000 -1000 -1000 -1000 -1000 -1000 
-1000 -1000 -1000 -1000 -1000 -1000 -1000 -1000 -1000 
-1000 -1000 -1000 -1000 -1000 -1000 -1000 -1000 -1000 
-1000 -1000 -1000 -1000 -1000 -1000 -1000 -1000 -1000 
-1000 -1000 -1000 -1000 -1000 -1000 -1000 -1000 -1000 
-1000 -1000 -1000 -1000 -1000 -1000 -1000 -1000 -1000 
-1000 -1000 -1000 -1000 -1000 -1000 -1000 -1000 -1000 
-1000 -1000 -1000 -1000 -1000 -1000 -1000 -1000 -1000 
-1000 -1000 -1000 -1000 -1000 -1000 -1000 -1000 -1000 
-1000 -1000 -1000 -1000 -1000 -1000 -1000 -1000 -1000 
-1000 -1000 -1000 -1000 -1000 -1000 -1000 -1000 -1000 
-1000 -1000 -1000 -1000 -1000 -1000 -1000 -1000 -1000 
-1000 -1000 -1000 -1000 -1000 -1000 -1000 -1000 -1000 
-1000 -1000 -1000 -1000 -1000 -1000 -1000 -1000 -1000 
-1000 -1000 -1000 -1000 -1000 -1000 -1000 -1000 -1000 
-1000 -1000 -1000 -1000 -1000 -1000 -1000 -1000 -1000 
-1000 -1000 -1000 -1000 -1000 -1000 -1000 -1000 -1000 
-1000 -1000 -1000 -1000 -1000 -1000 -1000 -1000 -1000 
-1000 -1000 -1000 -1000 -1000 -1000 -1000 -1000 -1000 
-1000 -1000 -1000 -1000 -1000 -1000 -1000 -1000 -1000 
-1000 -1000 -1000 -1000 -1000 -1000 -1000 -1000 -1000 
-1000 -1000 -1000 -1000 -1000 -1000 -1000 -1000 -1000 
-1000 -1000 -1000 -1000 -1000 -1000 -1000 -1000 -1000 
-1000 -1000 -1000 -1000 -1000 -1000 -1000 -1000 -1000 
-1000 -1000 -1000 -1000 -1000 -1000 -1000 -1000 -1000 
-1000 -1000 -1000 -1000 -1000 -1000 -1000 -1000 -1000 
-1000 -1000 -1000 -1000 -1000 -1000 -1000 -1000 -1000 
-1000 -1000 -1000 -1000 -1000 -1000 -1000 -1000 -1000 
-1000 -1000 -1000 -1000 -1000 -1000 -1000 -1000 -1000 
-1000 -1000 -1000 -1000 -1000 -1000 -1000 -1000 -1000 
-1000 -1000 -1000 -1000 -1000 -1000 -1000 -1000 -1000 
-1000 -1000 -1000 -1000 -1000 -1000 -1000 -1000 -1000 
-1000 -1000 -1000 -1000 -1000 -1000 -1000 -1000 -1000 
-1000 -1000 -1000 -1000 -1000 -1000 -1000 -1000 -1000 
-1000 -1000 -1000 -1000 -1000 -1000 -1000 -1000 -1000 
-1000 -1000 -1000 -1000 -1000 -1000 -1000 -1000 -1000 
-1000 -1000 -1000 -1000 -1000 -1000 -1000 -1000 -1000 
-1000 -1000 -1000 -1000 -1000 -1000 -1000 -1000 -1000 
-1000 -1000 -1000 -1000 -1000 -1000 -1000 -1000 -1000 
-1000 -1000 -1000 -1000 -1000 -1000 -1000 -1000 -1000 
-1000 -1000 -1000 -1000 -1000 -1000 -1000 -1000 -1000 
-1000 -1000 -1000 -1000 -1000 -1000 -1000 -1000 -1000 
-1000 -1000 -1000 -1000 -1000 -1000 -1000 -1000 -1000 
-1000 -1000 -1000 -1000 -1000 -1000 -1000 -1000 -1000 
-1000 -1000 -1000 -1000 -1000 -1000 -1000 -1000 -1000 
-1000 -1000 -1000 -1000 -1000 -1000 -1000 -1000 -1000 
-1000 -1000 -1000 -1000 -1000 -1000 -1000 -1000 -1000 
-1000 -1000 -1000 -1000 -1000 -1000 -1000 -1000 -1000 
-1000 -1000 -1000 -1000 -1000 -1000 -1000 -1000 -1000 
-1000 -1000 -1000 -1000 -1000 -1000 -1000 -1000 -1000 
-1000 -1000 -1000 -1000 -1000 -1000 -1000 -1000 -1000 
-1000 -1000 -1000 -1000 -1000 -1000 -1000 -1000 -1000 
-1000 -1000 -1000 -1000 -1000 -1000 -1000 -1000 -1000 
-1000 -1000 -1000 -1000 -1000 -1000 -1000 -1000 -1000 
-1000 -1000 -1000 -1000 -1000 -1000 -1000 -1000 -1000 
-1000 -1000 -1000 -1000 -1000 -1000 -1000 -1000 -1000 
-1000 -1000 -1000 -1000 -1000 -1000 -1000 -1000 -1000 
-1000 -1000 -1000 -1000 -1000 -1000 -1000 -1000 -1000 
-1000 -1000 -1000 -1000 -1000 -1000 -1000 -1000 -1000 
-1000 -1000 -1000 -1000 -1000 -1000 -1000 -1000 -1000 
-1000 -1000 -1000 -1000 -1000 -1000 -1000 -1000 -1000 
-1000 -1000 -1000 -1000 -1000 -1000 -1000 -1000 -1000 
-1000 -1000 -1000 -1000 -1000 -1000 -1000 -1000 -1000 
-1000 -1000 -1000 -1000 -1000 -1000 -1000 -1000 -1000 
-1000 -1000 -1000 -1000 -1000 -1000 -1000 -1000 -1000 
-1000 -1000 -1000 -1000 -1000 -1000 -1000 -1000 -1000 
-1000 -1000 -1000 -1000 -1000 -1000 -1000 -1000 -1000 
-1000 -1000 -1000 -1000 -1000 -1000 -1000 -1000 -1000 
-1000 -1000 -1000 -1000 -1000 -1000 -1000 -1000 -1000 
-1000 -1000 -1000 -1000 -1000 -1000 -1000 -1000 -1000 
-1000 -1000 -1000 -1000 -1000 -1000 -1000 -1000 -1000 
-1000 -1000 -1000 -1000 -1000 -1000 -1000 -1000 -1000 
-1000 -1000 -1000 -1000 -1000 -1000 -1000 -1000 -1000 
-1000 -1000 -1000 -1000 -1000 -1000 -1000 -1000 -1000 
-1000 -1000 -1000 -1000 -1000 -1000 -1000 -1000 -1000 
-1000 -1000 -1000 -1000 -1000 -1000 -1000 -1000 -1000 
-1000 -1000 -1000 -1000 -1000 -1000 -1000 -1000 -1000 
-1000 -1000 -1000 -1000 -1000 -1000 -1000 -1000 -1000 
-1000 -1000 -1000 -1000 -1000 -1000 -1000 -1000 -1000 
-1000 -1000 -1000 -1000 -1000 -1000 -1000 -1000 -1000 
-1000 -1000 -1000 -1000 -1000 -1000 -1000 -1000 -1000 
-1000 -1000 -1000 -1000 -1000 -1000 -1000 -1000 -1000 
-1000 -1000 -1000 -1000 -1000 -1000 -1000 -1000 -1000 
-1000 -1000 -1000 -1000 -1000 -1000 -1000 -1000 -1000 
-1000 -1000 -1000 -1000 -1000 -1000 -1000 -1000 -1000 
-1000 -1000 -1000 -1000 -1000 -1000 -1000 -1000 -1000 
-1000 -1000 -1000 -1000 -1000 -1000 -1000 -1000 -1000 
-1000 -1000 -1000 -1000 -1000 -1000 -1000 -1000 -1000 
-1000 -1000 -1000 -1000 -1000 -1000 -1000 -1000 -1000 
-1000 -1000 -1000 -1000 -1000 -1000 -1000 -1000 -1000 
-1000 -1000 -1000 -1000 -1000 -1000 -1000 -1000 -1000 
-1000 -1000 -1000 -1000 -1000 -1000 -1000 -1000 -1000 
-1000 -1000 -1000 -1000 -1000 -1000 -1000 -1000 -1000 
-1000 -1000 -1000 -1000 -1000 -1000 -1000 -1000 -1000 
-1000 -1000 -1000 -1000 -1000 -1000 -1000 -1000 -1000 
-1000 -1000 -1000 -1000 -1000 -1000 -1000 -1000 -1000 
-1000 -1000 -1000 -1000 -1000 -1000 -1000 -1000 -1000 
-1000 -1000 -1000 -1000 -1000 -1000 -1000 -1000 -1000 
-1000 -1000 -1000 -1000 -1000 -1000 -1000 -1000 -1000 
-1000 -1000 -1000 -1000 -1000 -1000 -1000 -1000 -1000 
-1000 -1000 -1000 -1000 -1000 -1000 -1000 -1000 -1000 
-1000 -1000 -1000 -1000 -1000 -1000 -1000 -1000 -1000 
-1000 -1000 -1000 -1000 -1000 -1000 -1000 -1000 -1000 
-1000 -1000 -1000 -1000 -1000 -1000 -1000 -1000 -1000 
-1000 -1000 -1000 -1000 -1000 -1000 -1000 -1000 -1000 
-1000 -1000 -1000 -1000 -1000 -1000 -1000 -1000 -1000 
-1000 -1000 -1000 -1000 -1000 -1000 -1000 -1000 -1000 
-1000 -1000 -1000 -1000 -1000 -1000 -1000 -1000 -1000 
-1000 -1000 -1000 -1000 -1000 -1000 -1000 -1000 -1000 
-1000 -1000 -1000 -1000 -1000 -1000 -1000 -1000 -1000 
-1000 -1000 -1000 -1000 -1000 -1000 -1000 -1000 -1000 
-1000 -1000 -1000 -1000 -1000 -1000 -1000 -1000 -1000 
-1000 -1000 -1000 -1000 -1000 -1000 -1000 -1000 -1000 
-1000 -1000 -1000 -1000 -1000 -1000 -1000 -1000 -1000 
-1000 -1000 -1000 -1000 -1000 -1000 -1000 -1000 -1000 
-1000 -1000 -1000 -1000 -1000 -1000 -1000 -1000 -1000 
-1000 -1000 -1000 -1000 -1000 -1000 -1000 -1000 -1000 
-1000 -1000 -1000 -1000 -1000 -1000 -1000 -1000 -1000 
-1000 -1000 -1000 -1000 -1000 -1000 -1000 -1000 -1000 
-1000 -1000 -1000 -1000 -1000 -1000 -1000 -1000 -1000 
-1000 -1000 -1000 -1000 -1000 -1000 -1000 -1000 -1000 
-1000 -1000 -1000 -1000 -1000 -1000 -1000 -1000 -1000 
-1000 -1000 -1000 -1000 -1000 -1000 -1000 -1000 -1000 
-1000 -1000 -1000 -1000 -1000 -1000 -1000 -1000 -1000 
-1000 -1000 -1000 -1000 -1000 -1000 -1000 -1000 -1000 
-1000 -1000 -1000 -1000 -1000 -1000 -1000 -1000 -1000 
-1000 -1000 -1000 -1000 -1000 -1000 -1000 -1000 -1000 
-1000 -1000 -1000 -1000 -1000 -1000 -1000 -1000 -1000 
-1000 -1000 -1000 -1000 -1000 -1000 -1000 -1000 -1000 
-1000 -1000 -1000 -1000 -1000 -1000 -1000 -1000 -1000 
-1000 -1000 -1000 -1000 -1000 -1000 -1000 -1000 -1000 
-1000 -1000 -1000 -1000 -1000 -1000 -1000 -1000 -1000 
-1000 -1000 -1000 -1000 -1000 -1000 -1000 -1000 -1000 
-1000 -1000 -1000 -1000 -1000 -1000 -1000 -1000 -1000 
-1000 -1000 -1000 -1000 -1000 -1000 -1000 -1000 -1000 
-1000 -1000 -1000 -1000 -1000 -1000 -1000 -1000 -1000 
-1000 -1000 -1000 -1000 -1000 -1000 -1000 -1000 -1000 
-1000 -1000 -1000 -1000 -1000 -1000 -1000 -1000 -1000 
-1000 -1000 -1000 -1000 -1000 -1000 -1000 -1000 -1000 
-1000 -1000 -1000 -1000 -1000 -1000 -1000 -1000 -1000 
-1000 -1000 -1000 -1000 -1000 -1000 -1000 -1000 -1000 
-1000 -1000 -1000 -1000 -1000 -1000 -1000 -1000 -1000 
-1000 -1000 -1000 -1000 -1000 -1000 -1000 -1000 -1000 
-1000 -1000 -1000 -1000 -1000 -1000 -1000 -1000 -1000 
-1000 -1000 -1000 -1000 -1000 -1000 -1000 -1000 -1000 
-1000 -1000 -1000 -1000 -1000 -1000 -1000 -1000 -1000 
-1000 -1000 -1000 -1000 -1000 -1000 -1000 -1000 -1000 
-1000 -1000 -1000 -1000 -1000 -1000 -1000 -1000 -1000 
-1000 -1000 -1000 -1000 -1000 -1000 -1000 -1000 -1000 
-1000 -1000 -1000 -1000 -1000 -1000 -1000 -1000 -1000 
-1000 -1000 -1000 -1000 -1000 -1000 -1000 -1000 -1000 
-1000 -1000 -1000 -1000 -1000 -1000 -1000 -1000 -1000 
-1000 -1000 -1000 -1000 -1000 -1000 -1000 -1000 -1000 
-1000 -1000 -1000 -1000 -1000 -1000 -1000 -1000 -1000 
-1000 -1000 -1000 -1000 -1000 -1000 -1000 -1000 -1000 
-1000 -1000 -1000 -1000 -1000 -1000 -1000 -1000 -1000 
-1000 -1000 -1000 -1000 -1000 -1000 -1000 -1000 -1000 
-1000 -1000 -1000 -1000 -1000 -1000 -1000 -1000 -1000 
-1000 -1000 -1000 -1000 -1000 -1000 -1000 -1000 -1000 
-1000 -1000 -1000 -1000 -1000 -1000 -1000 -1000 -1000 
-1000 -1000 -1000 -1000 -1000 -1000 -1000 -1000 -1000 
-1000 -1000 -1000 -1000 -1000 -1000 -1000 -1000 -1000 
-1000 -1000 -1000 -1000 -1000 -1000 -1000 -1000 -1000 
-1000 -1000 -1000 -1000 -1000 -1000 -1000 -1000 -1000 
-1000 -1000 -1000 -1000 -1000 -1000 -1000 -1000 -1000 
-1000 -1000 -1000 -1000 -1000 -1000 -1000 -1000 -1000 
-1000 -1000 -1000 -1000 -1000 -1000 -1000 -1000 -1000 
-1000 -1000 -1000 -1000 -1000 -1000 -1000 -1000 -1000 
-1000 -1000 -1000 -1000 -1000 -1000 -1000 -1000 -1000 
-1000 -1000 -1000 -1000 -1000 -1000 -1000 -1000 -1000 
-1000 -1000 -1000 -1000 -1000 -1000 -1000 -1000 -1000 
-1000 -1000 -1000 -1000 -1000 -1000 -1000 -1000 -1000 
-1000 -1000 -1000 -1000 -1000 -1000 -1000 -1000 -1000 
-1000 -1000 -1000 -1000 -1000 -1000 -1000 -1000 -1000 
-1000 -1000 -1000 -1000 -1000 -1000 -1000 -1000 -1000 
-1000 -1000 -1000 -1000 -1000 -1000 -1000 -1000 -1000 
-1000 -1000 -1000 -1000 -1000 -1000 -1000 -1000 -1000 
-1000 -1000 -1000 -1000 -1000 -1000 -1000 -1000 -1000 
-1000 -1000 -1000 -1000 -1000 -1000 -1000 -1000 -1000 
-1000 -1000 -1000 -1000 -1000 -1000 -1000 -1000 -1000 
-1000 -1000 -1000 -1000 -1000 -1000 -1000 -1000 -1000 
-1000 -1000 -1000 -1000 -1000 -1000 -1000 -1000 -1000 
-1000 -1000 -1000 -1000 -1000 -1000 -1000 -1000 -1000 
-1000 -1000 -1000 -1000 -1000 -1000 -1000 -1000 -1000 
-1000 -1000 -1000 -1000 -1000 -1000 -1000 -1000 -1000 
-1000 -1000 -1000 -1000 -1000 -1000 -1000 -1000 -1000 
-1000 -1000 -1000 -1000 -1000 -1000 -1000 -1000 -1000 
-1000 -1000 -1000 -1000 -1000 -1000 -1000 -1000 -1000 
-1000 -1000 -1000 -1000 -1000 -1000 -1000 -1000 -1000 
-1000 -1000 -1000 -1000 -1000 -1000 -1000 -1000 -1000 
-1000 -1000 -1000 -1000 -1000 -1000 -1000 -1000 -1000 
-1000 -1000 -1000 -1000 -1000 -1000 -1000 -1000 -1000 
-1000 -1000 -1000 -1000 -1000 -1000 -1000 -1000 -1000 
-1000 -1000 -1000 -1000 -1000 -1000 -1000 -1000 -1000 
-1000 -1000 -1000 -1000 -1000 -1000 -1000 -1000 -1000 
-1000 -1000 -1000 -1000 -1000 -1000 -1000 -1000 -1000 
-1000 -1000 -1000 -1000 -1000 -1000 -1000 -1000 -1000 
-1000 -1000 -1000 -1000 -1000 -1000 -1000 -1000 -1000 
-1000 -1000 -1000 -1000 -1000 -1000 -1000 -1000 -1000 
-1000 -1000 -1000 -1000 -1000 -1000 -1000 -1000 -1000 
-1000 -1000 -1000 -1000 -1000 -1000 -1000 -1000 -1000 
-1000 -1000 -1000 -1000 -1000 -1000 -1000 -1000 -1000 
-1000 -1000 -1000 -1000 -1000 -1000 -1000 -1000 -1000 
-1000 -1000 -1000 -1000 -1000 -1000 -1000 -1000 -1000 
-1000 -1000 -1000 -1000 -1000 -1000 -1000 -1000 -1000 
-1000 -1000 -1000 -1000 -1000 -1000 -1000 -1000 -1000 
-1000 -1000 -1000 -1000 -1000 -1000 -1000 -1000 -1000 
-1000 -1000 -1000 -1000 -1000 -1000 -1000 -1000 -1000 
-1000 -1000 -1000 -1000 -1000 -1000 -1000 -1000 -1000 
-1000 -1000 -1000 -1000 -1000 -1000 -1000 -1000 -1000 
-1000 -1000 -1000 -1000 -1000 -1000 -1000 -1000 -1000 
-1000 -1000 -1000 -1000 -1000 -1000 -1000 -1000 -1000 
-1000 -1000 -1000 -1000 -1000 -1000 -1000 -1000 -1000 
-1000 -1000 -1000 -1000 -1000 -1000 -1000 -1000 -1000 
-1000 -1000 -1000 -1000 -1000 -1000 -1000 -1000 -1000 
-1000 -1000 -1000 -1000 -1000 -1000 -1000 -1000 -1000 
-1000 -1000 -1000 -1000 -1000 -1000 -1000 -1000 -1000 
-1000 -1000 -1000 -1000 -1000 -1000 -1000 -1000 -1000 
-1000 -1000 -1000 -1000 -1000 -1000 -1000 -1000 -1000 
-1000 -1000 -1000 -1000 -1000 -1000 -1000 -1000 -1000 
-1000 -1000 -1000 -1000 -1000 -1000 -1000 -1000 -1000 
-1000 -1000 -1000 -1000 -1000 -1000 -1000 -1000 -1000 
-1000 -1000 -1000 -1000 -1000 -1000 -1000 -1000 -1000 
-1000 -1000 -1000 -1000 -1000 -1000 -1000 -1000 -1000 
-1000 -1000 -1000 -1000 -1000 -1000 -1000 -1000 -1000 
-1000 -1000 -1000 -1000 -1000 -1000 -1000 -1000 -1000 
-1000 -1000 -1000 -1000 -1000 -1000 -1000 -1000 -1000 
-1000 -1000 -1000 -1000 -1000 -1000 -1000 -1000 -1000 
-1000 -1000 -1000 -1000 -1000 -1000 -1000 -1000 -1000 
-1000 -1000 -1000 -1000 -1000 -1000 -1000 -1000 -1000 
-1000 -1000 -1000 -1000 -1000 -1000 -1000 -1000 -1000 
-1000 -1000 -1000 -1000 -1000 -1000 -1000 -1000 -1000 