# vtk DataFile Version 3.0
vtk output
ASCII
DATASET POLYDATA
POINTS 13638 float
-69.3363 -11.2309 -67.9019 -69.5069 -11.1047 -67.9043 -69.5294 -11.1458 -67.8689 
-69.5097 -11.1021 -67.9044 -70.1891 -10.5282 -67.9148 -70.2102 -10.5785 -67.7714 
-70.58 -10.107 -67.9219 -71.4234 -8.91898 -67.9407 -71.4819 -8.76539 -67.9429 
-71.484 -8.91848 -67.7748 -71.0974 -9.43963 -67.9327 -56.8064 -12.2638 -67.8276 
-57.0245 -12.3736 -67.8273 -57.1097 -12.4951 -67.6667 -57.5378 -12.515 -67.8281 
-57.7017 -12.554 -67.8284 -58.4083 -12.6958 -67.8301 -58.5074 -12.85 -67.4897 
-58.8074 -12.8093 -67.8307 -59.0493 -12.9718 -67.6098 -59.002 -12.87 -67.8309 
-59.6305 -13.1032 -67.8311 -59.8574 -13.1668 -67.8315 -59.8327 -13.2604 -67.5944 
-60.5052 -13.354 -67.8324 -60.683 -13.5385 -67.4611 -61.2377 -13.4808 -67.8344 
-61.5079 -13.5189 -67.8353 -61.7305 -13.636 -67.6696 -61.4218 -13.781 -67.1164 
-60.957 -13.431 -67.8336 -62.1244 -13.8081 -67.2813 -61.7737 -13.5578 -67.8361 
-63.3989 -13.6367 -67.8431 -63.4851 -13.6893 -67.7567 -62.8927 -13.6524 -67.8404 
-62.8217 -13.7684 -67.52 -62.5183 -13.6211 -67.839 -62.0877 -13.5978 -67.8371 
-63.4597 -13.8551 -66.9887 -63.4661 -13.6332 -67.8435 -63.7045 -13.5885 -67.8452 
-64.1548 -13.5062 -67.8484 -64.2797 -13.4857 -67.8493 -64.5346 -13.6829 -66.9763 
-65.3367 -13.2318 -67.8576 -65.5513 -13.1776 -67.8594 -65.891 -13.1981 -67.6201 
-65.333 -13.4588 -67.2151 -65.2243 -13.253 -67.8568 -65.8698 -13.371 -66.9108 
-65.9724 -13.0666 -67.8628 -66.6767 -12.8238 -67.8693 -66.6895 -12.8196 -67.8694 
-66.6941 -12.8176 -67.8694 -66.8813 -12.8984 -66.9729 -67.7082 -12.3248 -67.8805 
-67.7322 -12.3102 -67.8808 -67.8335 -12.3189 -67.0204 -68.6484 -11.7375 -67.8923 
-68.6593 -11.7295 -67.8925 -68.7321 -11.6905 -67.0534 -69.5854 -11.0525 -67.0599 
-70.3955 -10.3731 -67.0721 -70.8265 -9.83793 -67.9264 -70.8926 -9.7671 -67.9276 
-71.1299 -9.58949 -67.0158 -71.8344 -7.97697 -67.5717 -71.6821 -8.73506 -66.8478 
-71.735 -8.02386 -67.9532 -71.8928 -7.00168 -67.9666 -71.9049 -6.28182 -67.9755 
-71.9994 -7.04415 -67.3657 -71.8167 -7.53485 -67.9596 -71.6015 -4.47288 -67.9963 
-71.57 -4.30582 -67.9982 -71.6258 -4.50349 -67.8213 -71.7954 -5.33284 -67.9866 
-71.7816 -5.26277 -67.9874 -71.8186 -5.37027 -67.8952 -71.8403 -5.68157 -67.9826 
-53.5222 -9.52425 -67.8451 -53.8255 -9.69587 -67.8445 -53.8928 -9.8305 -67.7421 
-53.9176 -9.75974 -67.8442 -54.724 -10.4102 -67.8401 -54.826 -10.5247 -67.8392 
-54.8279 -10.5726 -67.6748 -54.5773 -10.2691 -67.8412 -55.2987 -11.0199 -67.8355 
-55.6039 -11.3397 -67.833 -55.5775 -11.3546 -67.3774 -55.8855 -11.618 -67.831 
-56.4058 -12.0338 -67.8284 -56.3325 -12.0942 -67.0968 -57.4154 -12.7034 -67.3027 
-57.1185 -12.6677 -66.9418 -56.5523 -12.139 -67.8279 -57.7639 -12.9669 -66.799 
-57.6197 -12.5386 -67.8282 -58.9619 -13.111 -66.9833 -58.4642 -13.1547 -66.6655 
-57.6524 -12.5467 -67.8283 -57.6358 -12.5432 -67.8282 -59.1489 -13.3667 -66.4139 
-59.6384 -13.4275 -66.6705 -60.9471 -13.8031 -66.8323 -60.4595 -13.7087 -66.6848 
-61.2343 -14.0161 -66.206 -62.6312 -13.9607 -66.8342 -62.0224 -14.0353 -66.4899 
-62.7483 -14.1183 -66.1379 -63.7015 -14.0496 -65.9673 -64.5481 -13.8821 -66.2103 
-65.0718 -13.6741 -66.6577 -65.1484 -13.7699 -66.057 -66.0097 -13.4217 -66.048 
-66.9534 -12.8901 -66.095 -67.8651 -12.2793 -66.1493 -68.758 -11.6352 -66.2005 
-69.6392 -10.969 -66.2303 -70.4942 -10.2551 -66.2023 -71.3019 -9.42419 -66.0348 
-72.027 -7.84292 -66.4527 -71.8313 -8.63958 -66.1197 -72.0146 -6.22321 -67.1931 
-72.1099 -6.9164 -66.6575 -71.9044 -6.16908 -67.9769 -71.4698 -3.70284 -67.7329 
-71.6806 -4.43251 -67.0062 -71.4428 -3.67339 -68.0053 -71.9194 -5.42788 -66.8844 
-71.3661 -2.92615 -68.0142 -71.3211 -2.29767 -68.0217 -71.4276 -2.98895 -67.4055 
-71.4081 -3.36473 -68.009 -71.2706 -1.38427 -68.0327 -71.2643 -1.2504 -68.0343 
-71.2802 -1.39868 -67.9049 -71.2833 -1.72016 -68.0286 -51.6087 -8.08101 -67.8535 
-51.6897 -8.15147 -67.853 -51.6943 -8.21417 -67.7378 -51.4061 -7.87477 -67.855 
-52.1725 -8.58906 -67.85 -52.4745 -8.79849 -67.8489 -52.4169 -8.89012 -67.4368 
-52.8148 -9.06772 -67.8473 -53.3292 -9.40738 -67.8456 -53.1655 -9.54491 -67.1282 
-54.4073 -10.3204 -67.3168 -53.9544 -10.1734 -66.8817 -53.371 -9.43715 -67.8455 
-54.9301 -10.8164 -66.9056 -54.7069 -10.8366 -66.4314 -55.2252 -11.2295 -66.2925 
-54.2024 -9.95403 -67.8432 -55.4321 -11.2654 -66.7224 -56.189 -12.0348 -66.2205 
-57.0025 -12.7378 -66.0021 -58.1232 -13.2589 -66.2565 -57.7955 -13.2401 -65.9106 
-58.4728 -13.5126 -65.766 -59.5967 -13.6557 -65.9152 -59.0563 -13.5886 -65.8243 
-59.6551 -13.9453 -65.0879 -60.4491 -13.9741 -65.6095 -61.3451 -14.2377 -65.3737 
-61.9813 -14.2338 -65.6616 -62.6747 -14.3235 -65.1253 -63.5794 -14.268 -64.9584 
-64.3591 -14.0502 -65.5003 -65.0424 -13.9172 -65.1245 -66.0599 -13.4529 -65.1432 
-66.9951 -12.9035 -65.1814 -67.9186 -12.2875 -65.2628 -68.8272 -11.6269 -65.3576 
-69.7116 -10.9476 -65.3917 -70.552 -10.247 -65.3397 -71.1892 -9.63705 -65.1679 
-71.9961 -8.32329 -65.8296 -71.7498 -8.84448 -65.3846 -72.1147 -6.35926 -66.4787 
-72.1696 -7.04162 -65.9573 -72.0876 -7.92306 -65.3847 -71.5592 -3.77294 -67.0447 
-71.7118 -4.22519 -66.4587 -71.9156 -5.07864 -65.9754 -72.1235 -6.14955 -65.8731 
-71.3723 -2.15028 -67.2719 -71.5252 -2.80803 -66.5805 -71.3085 -2.13632 -68.0236 
-71.6174 -3.56591 -66.4875 -71.2548 -0.658557 -67.6376 -71.3599 -1.4556 -66.8839 
-71.2401 -0.658457 -68.0415 -71.1754 0.690113 -68.0577 -71.1823 0.743604 -68.0311 
-71.2106 0.052221 -68.05 -71.2412 0.0720912 -67.3762 -71.1733 0.740645 -68.0583 
-71.2194 -0.22445 -68.0467 -71.112 1.43552 -68.0666 -71.0769 1.6851 -68.0695 
-71.1188 1.45862 -67.8107 -71.1716 0.761423 -68.0586 -50.0965 -6.4815 -67.8657 
-50.279 -6.67396 -67.8643 -50.2768 -6.69443 -67.5947 -49.6433 -6.01393 -67.8692 
-50.5939 -7.01037 -67.8617 -50.9767 -7.42283 -67.8585 -50.9658 -7.40065 -67.2528 
-51.0925 -7.54818 -67.8575 -51.6537 -8.11418 -66.9091 -52.3457 -8.8185 -66.5804 
-53.0477 -9.50761 -66.2669 -53.7721 -10.1931 -65.9661 -54.5174 -10.8862 -65.6689 
-55.7432 -11.7544 -65.8688 -55.2956 -11.5647 -65.4412 -56.2891 -12.2861 -65.4264 
-56.0415 -12.2567 -64.9984 -56.567 -12.6534 -64.8174 -56.91 -12.7992 -65.1122 
-57.7033 -13.3729 -64.9524 -58.9566 -13.8059 -65.1928 -58.4274 -13.7244 -64.9858 
-59.1319 -14.0384 -64.4727 -59.8405 -14.2579 -64.1385 -60.4419 -14.2576 -64.5138 
-61.8326 -14.3775 -64.9747 -61.1885 -14.3562 -64.71 -61.9319 -14.5076 -64.293 
-62.8664 -14.4997 -64.0919 -63.6805 -14.375 -64.3271 -64.1858 -14.2083 -64.8091 
-64.298 -14.2646 -64.2096 -65.1625 -13.9563 -64.1927 -66.1058 -13.5137 -64.2025 
-67.0846 -13.0139 -64.1844 -68.1116 -12.3271 -64.4562 -69.0064 -11.6619 -64.5731 
-69.8746 -10.9697 -64.6041 -70.6974 -10.2529 -64.554 -71.4631 -9.4109 -64.4537 
-71.9228 -8.54985 -64.6827 -72.1948 -6.97602 -65.1038 -72.1412 -7.82284 -64.4118 
-71.7895 -4.26439 -65.7082 -71.9561 -5.08377 -64.905 -72.1238 -6.01526 -64.9969 
-71.4781 -2.20828 -66.5657 -71.6015 -2.63175 -66.0145 -71.6955 -3.37817 -65.6364 
-71.2978 -0.617638 -66.6938 -71.4099 -1.2896 -65.9313 -71.5353 -2.03473 -65.9806 
-71.2195 0.782536 -67.1053 -71.2824 0.115064 -66.4356 -70.9931 2.19894 -67.6509 
-71.1313 1.51772 -66.8884 -70.9994 2.15366 -68.0749 -70.7605 4.12306 -68.0979 
-70.7725 4.24685 -68.0595 -70.7325 3.54538 -68.0907 -70.7416 3.61362 -67.4721 
-70.7654 4.20745 -68.099 -70.8499 2.88097 -68.0831 -70.7621 3.35194 -68.0885 
-70.8421 2.94716 -67.543 -70.9163 2.55011 -68.0793 -70.7719 4.23719 -68.0994 
-70.9314 4.89253 -68.1083 -70.9387 4.93731 -68.082 -71.0725 5.46124 -68.1159 
-71.1921 6.09505 -68.1243 -71.0782 5.52127 -67.6766 -70.9376 4.91967 -68.1086 
-71.2693 6.80054 -68.1334 -71.2569 7.30091 -68.1395 -71.3001 6.88551 -67.7282 
-71.2004 6.14601 -68.125 -70.8869 9.03939 -68.1591 -70.8042 9.3282 -68.1622 
-70.9068 9.09471 -67.8779 -71.1105 8.2705 -68.1507 -71.0906 8.33605 -68.1514 
-71.109 8.33745 -68.077 -71.1482 8.06868 -68.1484 -69.7189 11.9823 -68.1896 
-69.687 12.0584 -68.1903 -69.6816 12.0575 -68.1115 -69.867 11.6765 -68.1865 
-68.3247 14.8955 -68.2185 -68.3184 14.909 -68.2187 -68.24 14.9603 -68.2036 
-68.3512 14.8453 -68.2181 -48.0607 -4.4667 -67.8805 -48.1786 -4.57939 -67.8797 
-48.1678 -4.61301 -67.7367 -47.7059 -4.12541 -67.883 -48.5705 -4.95788 -67.877 
-48.8721 -5.24924 -67.8749 -48.8487 -5.25387 -67.4488 -49.0837 -5.45682 -67.8734 
-49.5769 -5.9459 -67.8698 -49.5401 -5.91418 -67.1338 -49.5958 -5.9651 -67.8696 
-50.2351 -6.59442 -66.7967 -50.9287 -7.29263 -66.4467 -51.6172 -8.00207 -66.0963 
-52.2972 -8.71115 -65.7606 -52.961 -9.39748 -65.4608 -53.6295 -10.0863 -65.1408 
-54.3532 -10.8324 -64.8049 -55.1087 -11.5902 -64.529 -55.8521 -12.2981 -64.2658 
-56.9862 -13.032 -64.3737 -56.6084 -12.9025 -64.0652 -57.2172 -13.3478 -63.766 
-40.134 3.91183 -67.9446 -40.2385 3.68597 -67.9424 -40.1726 3.63316 -67.8174 
-40.3017 3.57112 -67.9413 -40.4621 3.30572 -67.9388 -57.6078 -13.4897 -64.0449 
-58.5061 -13.9817 -63.9541 -59.3504 -14.3431 -63.6158 -39.4891 6.05184 -67.9678 
-39.5316 5.85608 -67.9656 -39.4355 5.82052 -67.86 -39.5517 5.75697 -67.9645 
-39.7473 4.92765 -67.9552 -39.6933 4.8798 -67.939 -39.7604 4.87312 -67.9546 
-39.8012 4.75246 -67.9533 -60.001 -14.5858 -63.2729 -60.3954 -14.4554 -63.8147 
-60.6141 -14.6687 -63.3069 -38.9755 8.61356 -67.9968 -39.0471 7.98539 -67.9894 
-38.8497 8.07585 -67.5466 -39.2156 7.2183 -67.9808 -39.2344 7.13551 -67.9799 
-39.1723 7.10863 -67.9524 -39.2489 7.09322 -67.9794 -39.2853 6.95495 -67.9779 
-61.0793 -14.5584 -63.8201 -61.8747 -14.7293 -63.2689 -38.9855 9.21599 -68.0043 
-38.8303 9.13203 -67.6927 -39.0193 9.54807 -68.0085 -38.9012 9.82914 -67.7141 
-39.0463 9.8757 -68.0127 -38.9751 8.62585 -67.9969 -62.7511 -14.6936 -63.1203 
-39.0915 10.5772 -68.0215 -38.8625 10.7061 -67.2775 -39.1093 11.022 -68.0271 
-39.0377 11.2261 -67.9856 -39.1199 11.2209 -68.0296 -39.0694 10.2968 -68.018 
[...]
POINT_DATA 13638
SCALARS scalars float
LOOKUP_TABLE default
-1000 -1000 -1000 -1000 -1000 -1000 -1000 -1000 -1000 
-1000 -1000 -1000 -1000 -1000 -1000 -1000 -1000 -1000 
-1000 -1000 -1000 -1000 -1000 -1000 -1000 -1000 -1000 
-1000 -1000 -1000 -1000 -1000 -1000 -1000 -1000 -1000 
-1000 -1000 -1000 -1000 -1000 -1000 -1000 -1000 -1000 
-1000 -1000 -1000 -1000 -1000 -1000 -1000 -1000 -1000 
-1000 -1000 -1000 -1000 -1000 -1000 -1000 -1000 -1000 
-1000 -1000 -1000 -1000 -1000 -1000 -1000 -1000 -1000 
-1000 -1000 -1000 -1000 -1000 -1000 -1000 -1000 -1000 
-1000 -1000 -1000 -1000 -1000 -1000 -1000 -1000 -1000 
-1000 -1000 -1000 -1000 -1000 -1000 -1000 -1000 -1000 
-1000 -1000 -1000 -1000 -1000 -1000 -1000 -1000 -1000 
-1000 -1000 -1000 -1000 -1000 -1000 -1000 -1000 -1000 
-1000 -1000 -1000 -1000 -1000 -1000 -1000 -1000 -1000 
-1000 -1000 -1000 -1000 -1000 -1000 -1000 -1000 -1000 
-1000 -1000 -1000 -1000 -1000 -1000 -1000 -1000 -1000 
-1000 -1000 -1000 -1000 -1000 -1000 -1000 -1000 -1000 
-1000 -1000 -1000 -1000 -1000 -1000 -1000 -1000 -1000 
-1000 -1000 -1000 -1000 -1000 -1000 -1000 -1000 -1000 
-1000 -1000 -1000 -1000 -1000 -1000 -1000 -1000 -1000 
-1000 -1000 -1000 -1000 -1000 -1000 -1000 -1000 -1000 
-1000 -1000 -1000 -1000 -1000 -1000 -1000 -1000 -1000 
-1000 -1000 -1000 -1000 -1000 -1000 -1000 -1000 -1000 
-1000 -1000 -1000 -1000 -1000 -1000 -1000 -1000 -1000 
-1000 -1000 -1000 -1000 -1000 -1000 -1000 -1000 -1000 
-1000 -1000 -1000 -1000 -1000 -1000 -1000 -1000 -1000 
-1000 -1000 -1000 -1000 -1000 -1000 -1000 -1000 -1000 
-1000 -1000 -1000 -1000 -1000 -1000 -1000 -1000 -1000 
-1000 -1000 -1000 -1000 -1000 -1000 -1000 -1000 -1000 
-1000 -1000 -1000 -1000 -1000 -1000 -1000 -1000 -1000 
-1000 -1000 -1000 -1000 -1000 -1000 -1000 -1000 -1000 
-1000 -1000 -1000 -1000 -1000 -1000 -1000 -1000 -1000 
-1000 -1000 -1000 -1000 -1000 -1000 -1000 -1000 -1000 
-1000 -1000 -1000 -1000 -1000 -1000 -1000 -1000 -1000 
-1000 -1000 -1000 -1000 -1000 -1000 -1000 -1000 -1000 
-1000 -1000 -1000 -1000 -1000 -1000 -1000 -1000 -1000 
-1000 -1000 -1000 -1000 -1000 -1000 -1000 -1000 -1000 
-1000 -1000 -1000 -1000 -1000 -1000 -1000 -1000 -1000 
-1000 -1000 -1000 -1000 -1000 -1000 -1000 -1000 -1000 
-1000 -1000 -1000 -1000 -1000 -1000 -1000 -1000 -1000 
-1000 -1000 -1000 -1000 -1000 -1000 -1000 -1000 -1000 
-1000 -1000 -1000 -1000 -1000 -1000 -1000 -1000 -1000 
-1000 -1000 -1000 -1000 -1000 -1000 -1000 -1000 -1000 
-1000 -1000 -1000 -1000 -1000 -1000 -1000 -1000 -1000 
-1000 -1000 -1000 -1000 -1000 -1000 -1000 -1000 -1000 
-1000 -1000 -1000 -1000 -1000 -1000 -1000 -1000 -1000 
-1000 -1000 -1000 -1000 -1000 -1000 -1000 -1000 -1000 
-1000 -1000 -1000 -1000 -1000 -1000 -1000 -1000 -1000 
-1000 -1000 -1000 -1000 -1000 -1000 -1000 -1000 -1000 
-1000 -1000 -1000 -1000 -1000 -1000 -1000 -1000 -1000 
-1000 -1000 -1000 -1000 -1000 -1000 -1000 -1000 -1000 
-1000 -1000 -1000 -1000 -1000 -1000 -1000 -1000 -1000 
-1000 -1000 -1000 -1000 -1000 -1000 -1000 -1000 -1000 
-1000 -1000 -1000 -1000 -1000 -1000 -1000 -1000 -1000 
-1000 -1000 -1000 -1000 -1000 -1000 -1000 -1000 -1000 
-1000 -1000 -1000 -1000 -1000 -1000 -1000 -1000 -1000 
-1000 -1000 -1000 -1000 -1000 -1000 -1000 -1000 -1000 
-1000 -1000 -1000 -1000 -1000 -1000 -1000 -1000 -1000 
-1000 -1000 -1000 -1000 -1000 -1000 -1000 -1000 -1000 
-1000 -1000 -1000 -1000 -1000 -1000 -1000 -1000 -1000 
-1000 -1000 -1000 -1000 -1000 -1000 -1000 -1000 -1000 
-1000 -1000 -1000 -1000 -1000 -1000 -1000 -1000 -1000 
-1000 -1000 -1000 -1000 -1000 -1000 -1000 -1000 -1000 
-1000 -1000 -1000 -1000 -1000 -1000 -1000 -1000 -1000 
-1000 -1000 -1000 -1000 -1000 -1000 -1000 -1000 -1000 
-1000 -1000 -1000 -1000 -1000 -1000 -1000 -1000 -1000 
-1000 -1000 -1000 -1000 -1000 -1000 -1000 -1000 -1000 
-1000 -1000 -1000 -1000 -1000 -1000 -1000 -1000 -1000 
-1000 -1000 -1000 -1000 -1000 -1000 -1000 -1000 -1000 
-1000 -1000 -1000 -1000 -1000 -1000 -1000 -1000 -1000 
-1000 -1000 -1000 -1000 -1000 -1000 -1000 -1000 -1000 
-1000 -1000 -1000 -1000 -1000 -1000 -1000 -1000 -1000 
-1000 -1000 -1000 -1000 -1000 -1000 -1000 -1000 -1000 
-1000 -1000 -1000 -1000 -1000 -1000 -1000 -1000 -1000 
-1000 -1000 -1000 -1000 -1000 -1000 -1000 -1000 -1000 
-1000 -1000 -1000 -1000 -1000 -1000 -1000 -1000 -1000 
-1000 -1000 -1000 -1000 -1000 -1000 -1000 -1000 -1000 
-1000 -1000 -1000 -1000 -1000 -1000 -1000 -1000 -1000 
-1000 -1000 -1000 -1000 -1000 -1000 -1000 -1000 -1000 
-1000 -1000 -1000 -1000 -1000 -1000 -1000 -1000 -1000 
-1000 -1000 -1000 -1000 -1000 -1000 -1000 -1000 -1000 
-1000 -1000 -1000 -1000 -1000 -1000 -1000 -1000 -1000 
-1000 -1000 -1000 -1000 -1000 -1000 -1000 -1000 -1000 
-1000 -1000 -1000 -1000 -1000 -1000 -1000 -1000 -1000 
-1000 -1000 -1000 -1000 -1000 -1000 -1000 -1000 -1000 
-1000 -1000 -1000 -1000 -1000 -1000 -1000 -1000 -1000 
-1000 -1000 -1000 -1000 -1000 -1000 -1000 -1000 -1000 
-1000 -1000 -1000 -1000 -1000 -1000 -1000 -1000 -1000 
-1000 -1000 -1000 -1000 -1000 -1000 -1000 -1000 -1000 
-1000 -1000 -1000 -1000 -1000 -1000 -1000 -1000 -1000 
-1000 -1000 -1000 -1000 -1000 -1000 -1000 -1000 -1000 
-1000 -1000 -1000 -1000 -1000 -1000 -1000 -1000 -1000 
-1000 -1000 -1000 -1000 -1000 -1000 -1000 -1000 -1000 
-1000 -1000 -1000 -1000 -1000 -1000 -1000 -1000 -1000 
-1000 -1000 -1000 -1000 -1000 -1000 -1000 -1000 -1000 
-1000 -1000 -1000 -1000 -1000 -1000 -1000 -1000 -1000 
-1000 -1000 -1000 -1000 -1000 -1000 -1000 -1000 -1000 
-1000 -1000 -1000 -1000 -1000 -1000 -1000 -1000 -1000 
-1000 -1000 -1000 -1000 -1000 -1000 -1000 -1000 -1000 
-1000 -1000 -1000 -1000 -1000 -1000 -1000 -1000 -1000 
-1000 -1000 -1000 -1000 -1000 -1000 -1000 -1000 -1000 
-1000 -1000 -1000 -1000 -1000 -1000 -1000 -1000 -1000 
-1000 -1000 -1000 -1000 -1000 -1000 -1000 -1000 -1000 
-1000 -1000 -1000 -1000 -1000 -1000 -1000 -1000 -1000 
-1000 -1000 -1000 -1000 -1000 -1000 -1000 -1000 -1000 
-1000 -1000 -1000 -1000 -1000 -1000 -1000 -1000 -1000 
-1000 -1000 -1000 -1000 -1000 -1000 -1000 -1000 -1000 
-1000 -1000 -1000 -1000 -1000 -1000 -1000 -1000 -1000 
-1000 -1000 -1000 -1000 -1000 -1000 -1000 -1000 -1000 
-1000 -1000 -1000 -1000 -1000 -1000 -1000 -1000 -1000 
-1000 -1000 -1000 -1000 -1000 -1000 -1000 -1000 -1000 
-1000 -1000 -1000 -1000 -1000 -1000 -1000 -1000 -1000 
-1000 -1000 -1000 -1000 -1000 -1000 -1000 -1000 -1000 
-1000 -1000 -1000 -1000 -1000 -1000 -1000 -1000 -1000 
-1000 -1000 -1000 -1000 -1000 -1000 -1000 -1000 -1000 
-1000 -1000 -1000 -1000 -1000 -1000 -1000 -1000 -1000 
-1000 -1000 -1000 -1000 -1000 -1000 -1000 -1000 -1000 
-1000 -1000 -1000 -1000 -1000 -1000 -1000 -1000 -1000 
-1000 -1000 -1000 -1000 -1000 -1000 -1000 -1000 -1000 
-1000 -1000 -1000 -1000 -1000 -1000 -1000 -1000 -1000 
-1000 -1000 -1000 -1000 -1000 -1000 -1000 -1000 -1000 
-1000 -1000 -1000 -1000 -1000 -1000 -1000 -1000 -1000 
-1000 -1000 -1000 -1000 -1000 -1000 -1000 -1000 -1000 
-1000 -1000 -1000 -1000 -1000 -1000 -1000 -1000 -1000 
-1000 -1000 -1000 -1000 -1000 -1000 -1000 -1000 -1000 
-1000 -1000 -1000 -1000 -1000 -1000 -1000 -1000 -1000 
-1000 -1000 -1000 -1000 -1000 -1000 -1000 -1000 -1000 
-1000 -1000 -1000 -1000 -1000 -1000 -1000 -1000 -1000 
-1000 -1000 -1000 -1000 -1000 -1000 -1000 -1000 -1000 
-1000 -1000 -1000 -1000 -1000 -1000 -1000 -1000 -1000 
-1000 -1000 -1000 -1000 -1000 -1000 -1000 -1000 -1000 
-1000 -1000 -1000 -1000 -1000 -1000 -1000 -1000 -1000 
-1000 -1000 -1000 -1000 -1000 -1000 -1000 -1000 -1000 
-1000 -1000 -1000 -1000 -1000 -1000 -1000 -1000 -1000 
-1000 -1000 -1000 -1000 -1000 -1000 -1000 -1000 -1000 
-1000 -1000 -1000 -1000 -1000 -1000 -1000 -1000 -1000 
-1000 -1000 -1000 -1000 -1000 -1000 -1000 -1000 -1000 
-1000 -1000 -1000 -1000 -1000 -1000 -1000 -1000 -1000 
-1000 -1000 -1000 -1000 -1000 -1000 -1000 -1000 -1000 
-1000 -1000 -1000 -1000 -1000 -1000 -1000 -1000 -1000 
-1000 -1000 -1000 -1000 -1000 -1000 -1000 -1000 -1000 
-1000 -1000 -1000 -1000 -1000 -1000 -1000 -1000 -1000 
-1000 -1000 -1000 -1000 -1000 -1000 -1000 -1000 -1000 
-1000 -1000 -1000 -1000 -1000 -1000 -1000 -1000 -1000 
-1000 -1000 -1000 -1000 -1000 -1000 -1000 -1000 -1000 
-1000 -1000 -1000 -1000 -1000 -1000 -1000 -1000 -1000 
-1000 -1000 -1000 -1000 -1000 -1000 -1000 -1000 -1000 
-1000 -1000 -1000 -1000 -1000 -1000 -1000 -1000 -1000 
-1000 -1000 -1000 -1000 -1000 -1000 -1000 -1000 -1000 
-1000 -1000 -1000 -1000 -1000 -1000 -1000 -1000 -1000 
-1000 -1000 -1000 -1000 -1000 -1000 -1000 -1000 -1000 
-1000 -1000 -1000 -1000 -1000 -1000 -1000 -1000 -1000 
-1000 -1000 -1000 -1000 -1000 -1000 -1000 -1000 -1000 
-1000 -1000 -1000 -1000 -1000 -1000 -1000 -1000 -1000 
-1000 -1000 -1000 -1000 -1000 -1000 -1000 -1000 -1000 
-1000 -1000 -1000 -1000 -1000 -1000 -1000 -1000 -1000 
-1000 -1000 -1000 -1000 -1000 -1000 -1000 -1000 -1000 
-1000 -1000 -1000 -1000 -1000 -1000 -1000 -1000 -1000 
-1000 -1000 -1000 -1000 -1000 -1000 -1000 -1000 -1000 
-1000 -1000 -1000 -1000 -1000 -1000 -1000 -1000 -1000 
-1000 -1000 -1000 -1000 -1000 -1000 -1000 -1000 -1000 
-1000 -1000 -1000 -1000 -1000 -1000 -1000 -1000 -1000 
-1000 -1000 -1000 -1000 -1000 -1000 -1000 -1000 -1000 
-1000 -1000 -1000 -1000 -1000 -1000 -1000 -1000 -1000 
-1000 -1000 -1000 -1000 -1000 -1000 -1000 -1000 -1000 
-1000 -1000 -1000 -1000 -1000 -1000 -1000 -1000 -1000 
-1000 -1000 -1000 -1000 -1000 -1000 -1000 -1000 -1000 
-1000 -1000 -1000 -1000 -1000 -1000 -1000 -1000 -1000 
-1000 -1000 -1000 -1000 -1000 -1000 -1000 -1000 -1000 
-1000 -1000 -1000 -1000 -1000 -1000 -1000 -1000 -1000 
-1000 -1000 -1000 -1000 -1000 -1000 -1000 -1000 -1000 
-1000 -1000 -1000 -1000 -1000 -1000 -1000 -1000 -1000 
-1000 -1000 -1000 -1000 -1000 -1000 -1000 -1000 -1000 
-1000 -1000 -1000 -1000 -1000 -1000 -1000 -1000 -1000 
-1000 -1000 -1000 -1000 -1000 -1000 -1000 -1000 -1000 
-1000 -1000 -1000 -1000 -1000 -1000 -1000 -1000 -1000 
-1000 -1000 -1000 -1000 -1000 -1000 -1000 -1000 -1000 
-1000 -1000 -1000 -1000 -1000 -1000 -1000 -1000 -1000 
-1000 -1000 -1000 -1000 -1000 -1000 -1000 -1000 -1000 
-1000 -1000 -1000 -1000 -1000 -1000 -1000 -1000 -1000 
-1000 -1000 -1000 -1000 -1000 -1000 -1000 -1000 -1000 
-1000 -1000 -1000 -1000 -1000 -1000 -1000 -1000 -1000 
-1000 -1000 -1000 -1000 -1000 -1000 -1000 -1000 -1000 
-1000 -1000 -1000 -1000 -1000 -1000 -1000 -1000 -1000 
-1000 -1000 -1000 -1000 -1000 -1000 -1000 -1000 -1000 
-1000 -1000 -1000 -1000 -1000 -1000 -1000 -1000 -1000 
-1000 -1000 -1000 -1000 -1000 -1000 -1000 -1000 -1000 
-1000 -1000 -1000 -1000 -1000 -1000 -1000 -1000 -1000 
-1000 -1000 -1000 -1000 -1000 -1000 -1000 -1000 -1000 
-1000 -1000 -1000 -1000 -1000 -1000 -1000 -1000 -1000 
-1000 -1000 -1000 -1000 -1000 -1000 -1000 -1000 -1000 
-1000 -1000 -1000 -1000 -1000 -1000 -1000 -1000 -1000 
-1000 -1000 -1000 -1000 -1000 -1000 -1000 -1000 -1000 
-1000 -1000 -1000 -1000 -1000 -1000 -1000 -1000 -1000 
-1000 -1000 -1000 -1000 -1000 -1000 -1000 -1000 -1000 
-1000 -1000 -1000 -1000 -1000 -1000 -1000 -1000 -1000 
-1000 -1000 -1000 -1000 -1000 -1000 -1000 -1000 -1000 
-1000 -1000 -1000 -1000 -1000 -1000 -1000 -1000 -1000 
-1000 -1000 -1000 -1000 -1000 -1000 -1000 -1000 -1000 
-1000 -1000 -1000 -1000 -1000 -1000 -1000 -1000 -1000 
-1000 -1000 -1000 -1000 -1000 -1000 -1000 -1000 -1000 
-1000 -1000 -1000 -1000 -1000 -1000 -1000 -1000 -1000 
-1000 -1000 -1000 -1000 -1000 -1000 -1000 -1000 -1000 
-1000 -1000 -1000 -1000 -1000 -1000 -1000 -1000 -1000 
-1000 -1000 -1000 -1000 -1000 -1000 -1000 -1000 -1000 
-1000 -1000 -1000 -1000 -1000 -1000 -1000 -1000 -1000 
-1000 -1000 -1000 -1000 -1000 -1000 -1000 -1000 -1000 
-1000 -1000 -1000 -1000 -1000 -1000 -1000 -1000 -1000 
-1000 -1000 -1000 -1000 -1000 -1000 -1000 -1000 -1000 
-1000 -1000 -1000 -1000 -1000 -1000 -1000 -1000 -1000 
-1000 -1000 -1000 -1000 -1000 -1000 -1000 -1000 -1000 
-1000 -1000 -1000 -1000 -1000 -1000 -1000 -1000 -1000 
-1000 -1000 -1000 -1000 -1000 -1000 -1000 -1000 -1000 
-1000 -1000 -1000 -1000 -1000 -1000 -1000 -1000 -1000 
-1000 -1000 -1000 -1000 -1000 -1000 -1000 -1000 -1000 
-1000 -1000 -1000 -1000 -1000 -1000 -1000 -1000 -1000 
-1000 -1000 -1000 -1000 -1000 -1000 -1000 -1000 -1000 
-1000 -1000 -1000 -1000 -1000 -1000 -1000 -1000 -1000 
-1000 -1000 -1000 -1000 -1000 -1000 -1000 -1000 -1000 
-1000 -1000 -1000 -1000 -1000 -1000 -1000 -1000 -1000 
-1000 -1000 -1000 -1000 -1000 -1000 -1000 -1000 -1000 
-1000 -1000 -1000 -1000 -1000 -1000 -1000 -1000 -1000 
-1000 -1000 -1000 -1000 -1000 -1000 -1000 -1000 -1000 
-1000 -1000 -1000 -1000 -1000 -1000 -1000 -1000 -1000 
-1000 -1000 -1000 -1000 -1000 -1000 -1000 -1000 -1000 
-1000 -1000 -1000 -1000 -1000 -1000 -1000 -1000 -1000 
-1000 -1000 -1000 -1000 -1000 -1000 -1000 -1000 -1000 
-1000 -1000 -1000 -1000 -1000 -1000 -1000 -1000 -1000 
-1000 -1000 -1000 -1000 -1000 -1000 -1000 -1000 -1000 
-1000 -1000 -1000 -1000 -1000 -1000 -1000 -1000 -1000 
-1000 -1000 -1000 -1000 -1000 -1000 -1000 -1000 -1000 
-1000 -1000 -1000 -1000 -1000 -1000 -1000 -1000 -1000 
-1000 -1000 -1000 -1000 -1000 -1000 -1000 -1000 -1000 
-1000 -1000 -1000 -1000 -1000 -1000 -1000 -1000 -1000 
-1000 -1000 -1000 -1000 -1000 -1000 -1000 -1000 -1000 
-1000 -1000 -1000 -1000 -1000 -1000 -1000 -1000 -1000 
-1000 -1000 -1000 -1000 -1000 -1000 -1000 -1000 -1000 
-1000 -1000 -1000 -1000 -1000 -1000 -1000 -1000 -1000 
-1000 -1000 -1000 -1000 -1000 -1000 -1000 -1000 -1000 
-1000 -1000 -1000 -1000 -1000 -1000 -1000 -1000 -1000 
-1000 -1000 -1000 -1000 -1000 -1000 -1000 -1000 -1000 
-1000 -1000 -1000 -1000 -1000 -1000 -1000 -1000 -1000 
-1000 -1000 -1000 -1000 -1000 -1000 -1000 -1000 -1000 
-1000 -1000 -1000 -1000 -1000 -1000 -1000 -1000 -1000 
-1000 -1000 -1000 -1000 -1000 -1000 -1000 -1000 -1000 
-1000 -1000 -1000 -1000 -1000 -1000 -1000 -1000 -1000 
-1000 -1000 -1000 -1000 -1000 -1000 -1000 -1000 -1000 
-1000 -1000 -1000 -1000 -1000 -1000 -1000 -1000 -1000 
-1000 -1000 -1000 -1000 -1000 -1000 -1000 -1000 -1000 
-1000 -1000 -1000 -1000 -1000 -1000 -1000 -1000 -1000 
-1000 -1000 -1000 -1000 -1000 -1000 -1000 -1000 -1000 
-1000 -1000 -1000 -1000 -1000 -1000 -1000 -1000 -1000 
-1000 -1000 -1000 -1000 -1000 -1000 -1000 -1000 -1000 
-1000 -1000 -1000 -1000 -1000 -1000 -1000 -1000 -1000 
-1000 -1000 -1000 -1000 -1000 -1000 -1000 -1000 -1000 
-1000 -1000 -1000 -1000 -1000 -1000 -1000 -1000 -1000 
-1000 -1000 -1000 -1000 -1000 -1000 -1000 -1000 -1000 
-1000 -1000 -1000 -1000 -1000 -1000 -1000 -1000 -1000 
-1000 -1000 -1000 -1000 -1000 -1000 -1000 -1000 -1000 
-1000 -1000 -1000 -1000 -1000 -1000 -1000 -1000 -1000 
-1000 -1000 -1000 -1000 -1000 -1000 -1000 -1000 -1000 
-1000 -1000 -1000 -1000 -1000 -1000 -1000 -1000 -1000 
-1000 -1000 -1000 -1000 -1000 -1000 -1000 -1000 -1000 
-1000 -1000 -1000 -1000 -1000 -1000 -1000 -1000 -1000 
-1000 -1000 -1000 -1000 -1000 -1000 -1000 -1000 -1000 
-1000 -1000 -1000 -1000 -1000 -1000 -1000 -1000 -1000 
-1000 -1000 -1000 -1000 -1000 -1000 -1000 -1000 -1000 
-1000 -1000 -1000 -1000 -1000 -1000 -1000 -1000 -1000 
-1000 -1000 -1000 -1000 -1000 -1000 -1000 -1000 -1000 
-1000 -1000 -1000 -1000 -1000 -1000 -1000 -1000 -1000 
-1000 -1000 -1000 -1000 -1000 -1000 -1000 -1000 -1000 
-1000 -1000 -1000 -1000 -1000 -1000 -1000 -1000 -1000 
-1000 -1000 -1000 -1000 -1000 -1000 -1000 -1000 -1000 
-1000 -1000 -1000 -1000 -1000 -1000 -1000 -1000 -1000 
-1000 -1000 -1000 -1000 -1000 -1000 -1000 -1000 -1000 
-1000 -1000 -1000 -1000 -1000 -1000 -1000 -1000 -1000 
-1000 -1000 -1000 -1000 -1000 -1000 -1000 -1000 -1000 
-1000 -1000 -1000 -1000 -1000 -1000 -1000 -1000 -1000 
-1000 -1000 -1000 -1000 -1000 -1000 -1000 -1000 -1000 
-1000 -1000 -1000 -1000 -1000 -1000 -1000 -1000 -1000 
-1000 -1000 -1000 -1000 -1000 -1000 -1000 -1000 -1000 
-1000 -1000 -1000 -1000 -1000 -1000 -1000 -1000 -1000 
-1000 -1000 -1000 -1000 -1000 -1000 -1000 -1000 -1000 
-1000 -1000 -1000 -1000 -1000 -1000 -1000 -1000 -1000 
-1000 -1000 -1000 -1000 -1000 -1000 -1000 -1000 -1000 
-1000 -1000 -1000 -1000 -1000 -1000 -1000 -1000 -1000 
-1000 -1000 -1000 -1000 -1000 -1000 -1000 -1000 -1000 
-1000 -1000 -1000 -1000 -1000 -1000 -1000 -1000 -1000 
-1000 -1000 -1000 -1000 -1000 -1000 -1000 -1000 -1000 
-1000 -1000 -1000 -1000 -1000 -1000 -1000 -1000 -1000 
-1000 -1000 -1000 -1000 -1000 -1000 -1000 -1000 -1000 
-1000 -1000 -1000 -1000 -1000 -1000 -1000 -1000 -1000 
-1000 -1000 -1000 -1000 -1000 -1000 -1000 -1000 -1000 
-1000 -1000 -1000 -1000 -1000 -1000 -1000 -1000 -1000 
-1000 -1000 -1000 -1000 -1000 -1000 -1000 -1000 -1000 
-1000 -1000 -1000 -1000 -1000 -1000 -1000 -1000 -1000 
-1000 -1000 -1000 -1000 -1000 -1000 -1000 -1000 -1000 
-1000 -1000 -1000 -1000 -1000 -1000 -1000 -1000 -1000 
-1000 -1000 -1000 -1000 -1000 -1000 -1000 -1000 -1000 
-1000 -1000 -1000 -1000 -1000 -1000 -1000 -1000 -1000 
-1000 -1000 -1000 -1000 -1000 -1000 -1000 -1000 -1000 
-1000 -1000 -1000 -1000 -1000 -1000 -1000 -1000 -1000 
-1000 -1000 -1000 -1000 -1000 -1000 -1000 -1000 -1000 
-1000 -1000 -1000 -1000 -1000 -1000 -1000 -1000 -1000 
-1000 -1000 -1000 -1000 -1000 -1000 -1000 -1000 -1000 
-1000 -1000 -1000 -1000 -1000 -1000 -1000 -1000 -1000 
-1000 -1000 -1000 -1000 -1000 -1000 -1000 -1000 -1000 
-1000 -1000 -1000 -1000 -1000 -1000 -1000 -1000 -1000 
-1000 -1000 -1000 -1000 -1000 -1000 -1000 -1000 -1000 
-1000 -1000 -1000 -1000 -1000 -1000 -1000 -1000 -1000 
-1000 -1000 -1000 -1000 -1000 -1000 -1000 -1000 -1000 
-1000 -1000 -1000 -1000 -1000 -1000 -1000 -1000 -1000 
-1000 -1000 -1000 -1000 -1000 -1000 -1000 -1000 -1000 
-1000 -1000 -1000 -1000 -1000 -1000 -1000 -1000 -1000 
-1000 -1000 -1000 -1000 -1000 -1000 -1000 -1000 -1000 
-1000 -1000 -1000 -1000 -1000 -1000 -1000 -1000 -1000 
-1000 -1000 -1000 -1000 -1000 -1000 -1000 -1000 -1000 
-1000 -1000 -1000 -1000 -1000 -1000 -1000 -1000 -1000 
-1000 -1000 -1000 -1000 -1000 -1000 -1000 -1000 -1000 
-1000 -1000 -1000 -1000 -1000 -1000 -1000 -1000 -1000 
-1000 -1000 -1000 -1000 -1000 -1000 -1000 -1000 -1000 
-1000 -1000 -1000 -1000 -1000 -1000 -1000 -1000 -1000 
-1000 -1000 -1000 -1000 -1000 -1000 -1000 -1000 -1000 
-1000 -1000 -1000 -1000 -1000 -1000 -1000 -1000 -1000 
-1000 -1000 -1000 -1000 -1000 -1000 -1000 -1000 -1000 
-1000 -1000 -1000 -1000 -1000 -1000 -1000 -1000 -1000 
-1000 -1000 -1000 -1000 -1000 -1000 -1000 -1000 -1000 
-1000 -1000 -1000 -1000 -1000 -1000 -1000 -1000 -1000 
-1000 -1000 -1000 -1000 -1000 -1000 -1000 -1000 -1000 
-1000 -1000 -1000 -1000 -1000 -1000 -1000 -1000 -1000 
-1000 -1000 -1000 -1000 -1000 -1000 -1000 -1000 -1000 
-1000 -1000 -1000 -1000 -1000 -1000 -1000 -1000 -1000 
-1000 -1000 -1000 -1000 -1000 -1000 -1000 -1000 -1000 
-1000 -1000 -1000 -1000 -1000 -1000 -1000 -1000 -1000 
-1000 -1000 -1000 -1000 -1000 -1000 -1000 -1000 -1000 
-1000 -1000 -1000 -1000 -1000 -1000 -1000 -1000 -1000 
-1000 -1000 -1000 -1000 -1000 -1000 -1000 -1000 -1000 
-1000 -1000 -1000 -1000 -1000 -1000 -1000 -1000 -1000 
-1000 -1000 -1000 -1000 -1000 -1000 -1000 -1000 -1000 
-1000 -1000 -1000 -1000 -1000 -1000 -1000 -1000 -1000 
-1000 -1000 -1000 -1000 -1000 -1000 -1000 -1000 -1000 
-1000 -1000 -1000 -1000 -1000 -1000 -1000 -1000 -1000 
-1000 -1000 -1000 -1000 -1000 -1000 -1000 -1000 -1000 
-1000 -1000 -1000 -1000 -1000 -1000 -1000 -1000 -1000 
-1000 -1000 -1000 -1000 -1000 -1000 -1000 -1000 -1000 
-1000 -1000 -1000 -1000 -1000 -1000 -1000 -1000 -1000 
-1000 -1000 -1000 -1000 -1000 -1000 -1000 -1000 -1000 
-1000 -1000 -1000 -1000 -1000 -1000 -1000 -1000 -1000 
-1000 -1000 -1000 -1000 -1000 -1000 -1000 -1000 -1000 
-1000 -1000 -1000 -1000 -1000 -1000 -1000 -1000 -1000 
-1000 -1000 -1000 -1000 -1000 -1000 -1000 -1000 -1000 
-1000 -1000 -1000 -1000 -1000 -1000 -1000 -1000 -1000 
-1000 -1000 -1000 -1000 -1000 -1000 -1000 -1000 -1000 
-1000 -1000 -1000 -1000 -1000 -1000 -1000 -1000 -1000 
-1000 -1000 -1000 -1000 -1000 -1000 -1000 -1000 -1000 
-1000 -1000 -1000 -1000 -1000 -1000 -1000 -1000 -1000 