# vtk DataFile Version 3.0
vtk output
ASCII
DATASET POLYDATA
POINTS 17746 float
-72.618 -2.75207 13.1008 -71.8759 -3.38979 13.322 -71.668 -2.89563 13.3369 
-73.5215 -2.94675 12.9836 -72.6307 -3.52448 13.1891 -73.4219 -3.51244 13.0923 
-71.1778 -1.73902 13.4567 -70.4055 -2.22558 13.676 -70.3582 -1.49318 13.723 
-72.0858 -2.06823 13.2019 -71.0245 -2.59434 13.4997 -73.1003 -1.93568 12.9562 
-73.7933 -2.15942 12.8708 -74.1185 -3.11456 12.9854 -74.6763 -2.38125 12.8778 
-75.5756 -2.30867 12.9605 -74.919 -2.95773 12.9957 -75.771 -2.68459 13.0609 
-71.3184 -0.717344 13.4675 -70.3766 -0.744846 13.7624 -72.2552 -1.05765 13.1995 
-73.1845 -1.21536 12.98 -74.0564 -1.32773 12.8333 -74.9196 -1.45822 12.8229 
-75.7715 -1.60536 12.9424 -76.4865 -1.88964 13.1578 -70.9155 0.1993 13.626 
-69.9667 -0.365394 13.9219 -69.9984 0.243227 13.9205 -71.9558 0.205451 13.3637 
-72.6153 -0.0997459 13.2068 -73.4623 -0.327266 13.0245 -74.3453 -0.475986 12.902 
-75.0417 -0.689966 12.8587 -76.0368 -0.618202 13.0534 -76.615 -1.06396 13.2028 
-70.5402 1.09897 13.7581 -69.6547 0.65492 14.0604 -69.8027 1.46086 14.057 
-71.4803 1.19609 13.5058 -72.1543 0.977214 13.3807 -73.0208 0.819676 13.2397 
-73.8806 0.594132 13.1081 -74.5597 0.296514 13.004 -75.6973 0.323209 13.0937 
-76.8412 0.282479 13.438 -77.0698 -0.360762 13.4801 -70.7674 2.14438 13.7582 
-70.0534 2.41409 14.0816 -71.6061 1.9738 13.526 -72.4465 1.83799 13.391 
-73.3253 1.71581 13.32 -74.289 1.56068 13.2558 -75.2931 1.23739 13.1998 
-76.3846 1.30018 13.3475 -76.841 0.949397 13.4578 -71.067 3.09206 13.8023 
-70.422 3.35066 14.1433 -71.8835 2.89729 13.5667 -72.7647 2.70734 13.4531 
-73.4577 2.46097 13.4025 -74.5699 2.59 13.4796 -75.5403 2.26592 13.4608 
-76.5117 2.06028 13.5186 -71.3991 3.94336 13.9228 -70.9214 4.21172 14.2543 
-72.1659 3.78391 13.6908 -73.0877 3.6109 13.5875 -74.113 3.34864 13.599 
-75.2291 3.45026 13.7716 -75.8932 3.13322 13.7585 -76.5724 2.80385 13.7197 
-71.7123 4.56342 14.103 -71.604 4.87242 14.3659 -72.3948 4.5338 13.9379 
-73.3053 4.43407 13.8338 -74.2619 4.25964 13.8372 -75.2586 4.12418 13.9551 
-72.4996 5.10613 14.2764 -73.4913 5.12118 14.1864 -74.4759 4.99781 14.1483 
-75.2483 4.76759 14.1475 -71.5914 -5.58743 13.4362 -70.9441 -6.17774 13.5139 
-70.7042 -5.66392 13.5638 -72.5514 -5.85971 13.3271 -71.6452 -6.42472 13.4261 
-73.4768 -6.01401 13.2725 -72.5343 -6.63047 13.3577 -74.3486 -6.09537 13.2787 
-73.4652 -6.70424 13.335 -74.2889 -6.61379 13.3492 -69.9287 -4.43789 13.7257 
-69.3312 -4.92985 13.8008 -69.1243 -4.33544 13.8637 -70.9121 -4.89554 13.5437 
-70.015 -5.32614 13.6775 -71.9062 -4.79237 13.3893 -72.6865 -5.03287 13.3004 
-73.6233 -5.21046 13.2254 -74.5792 -5.34291 13.1856 -74.9465 -6.19177 13.323 
-75.4942 -5.5256 13.2128 -75.6111 -6.00029 13.3121 -69.2969 -3.52713 13.8674 
-68.6202 -3.94273 13.9478 -68.4622 -3.34301 13.9986 -70.185 -3.72116 13.6979 
-70.7156 -4.14322 13.5881 -71.6698 -4.08833 13.4105 -72.86 -4.16921 13.2456 
-73.8492 -4.36037 13.1919 -74.8596 -4.46269 13.1439 -75.8592 -4.60621 13.1126 
-76.2949 -5.55598 13.2411 -76.8714 -4.80218 13.1454 -77.848 -4.72768 13.2546 
-77.166 -5.38039 13.2741 -78.166 -5.13088 13.4773 -68.6905 -2.57234 14.0378 
-67.9727 -2.94527 14.102 -67.8599 -2.3741 14.2055 -69.3969 -2.81193 13.8907 
-70.1005 -2.94869 13.7365 -71.001 -3.43194 13.5288 -74.0521 -3.62828 13.1031 
-75.1693 -3.50877 13.1081 -76.1846 -3.64786 13.1224 -77.1695 -3.8141 13.1331 
-78.0745 -4.01387 13.2587 -78.6863 -4.34107 13.5182 -68.173 -1.68184 14.2849 
-67.4297 -1.97238 14.3838 -67.4366 -1.26164 14.5614 -68.9433 -1.73619 14.0987 
-69.6064 -2.15119 13.8946 -76.4539 -2.73048 13.1684 -77.4903 -2.7551 13.2835 
-78.3391 -3.10104 13.3699 -79.2012 -3.36756 13.7365 -68.2168 -0.763394 14.4514 
-67.5284 -0.414585 14.726 -68.7969 -1.11119 14.2241 -69.5743 -1.13845 13.9987 
-77.3659 -1.92634 13.3936 -78.0691 -1.91769 13.5527 -78.6043 -2.21463 13.6118 
-79.2151 -2.52208 13.7775 -68.2869 0.122864 14.5632 -67.6548 0.308888 14.8068 
-69.1652 -0.210618 14.2041 -77.4359 -1.02531 13.5536 -78.033 -1.34926 13.6907 
-68.2026 1.05927 14.6896 -67.377 0.774714 14.9153 -67.5581 1.56014 14.9383 
-69.011 0.798346 14.3382 -77.5686 0.233788 13.7825 -77.7914 -0.234634 13.8336 
-68.4934 2.12151 14.7214 -67.8718 2.52194 15.0054 -69.1339 1.76005 14.3916 
-77.5061 1.74093 13.6996 -77.7594 0.92058 13.8369 -68.8814 3.10533 14.7889 
-68.2845 3.48274 15.0999 -69.4519 2.74004 14.4399 -77.7209 2.82798 13.8505 
-78.4963 1.58517 14.0187 -78.9102 2.42059 14.0112 -79.9682 2.5021 14.2159 
-79.6638 1.73085 14.3795 -80.486 2.32 14.4506 -69.4037 4.08924 14.8864 
-68.7631 4.44398 15.2084 -69.9374 3.70973 14.5199 -76.2276 3.95284 14.0458 
-77.2103 3.62464 14.0116 -78.3465 3.7069 14.0611 -79.0932 3.41055 14.0527 
-79.999 3.1745 14.1674 -80.7321 2.93684 14.3977 -69.9728 5.07511 15.0195 
-69.2657 5.399 15.3271 -70.7584 4.76915 14.6455 -76.3769 4.83591 14.3125 
-77.412 4.56237 14.2901 -78.4158 4.4201 14.2392 -79.3895 4.29214 14.2107 
-80.245 4.04048 14.2584 -80.9831 3.72896 14.4304 -70.4809 6.01647 15.1714 
-69.779 6.31061 15.4553 -71.3489 5.79029 14.8949 -72.3592 5.62234 14.6357 
-73.6618 5.74653 14.5414 -74.7468 5.6902 14.4916 -75.8397 5.49431 14.4698 
-76.9778 5.60852 14.5772 -77.6927 5.39677 14.5247 -78.617 5.2546 14.455 
-79.5996 5.15394 14.389 -80.6698 5.0192 14.4168 -81.2666 4.55489 14.5104 
-70.8877 6.84906 15.3295 -70.2722 7.00199 15.5563 -71.7998 6.71323 15.0789 
-72.8308 6.55332 14.9028 -73.9262 6.46382 14.8119 -75.0124 6.40698 14.7691 
-76.039 6.31033 14.744 -77.0401 6.23708 14.7435 -77.9602 6.16817 14.728 
-78.8387 6.07408 14.6611 -79.7675 6.00237 14.5732 -80.7445 5.92883 14.5364 
-81.6123 5.20643 14.5948 -81.7481 5.85238 14.652 -82.1652 5.51994 14.7713 
-71.0342 7.42766 15.4924 -71.512 8.07084 15.5442 -72.0915 7.6265 15.2711 
-73.2121 7.43831 15.0629 -74.2827 7.28571 14.9887 -75.3178 7.17179 14.9647 
-76.3023 7.07679 14.9492 -77.2449 6.99308 14.9332 -78.1546 6.92573 14.9078 
-79.0417 6.86969 14.852 -79.9351 6.82265 14.7639 -80.8522 6.76759 14.6941 
-81.7651 6.66482 14.7471 -82.501 5.9293 14.9237 -82.56 6.48346 14.9984 
-83.0634 6.10773 15.4025 -72.6637 8.55658 15.3723 -71.9758 8.84957 15.615 
-73.5671 8.31286 15.1849 -74.6052 8.12292 15.1115 -75.6171 7.97131 15.1056 
-76.5721 7.85496 15.1081 -77.4785 7.76634 15.099 -78.3563 7.70103 15.0733 
-79.2223 7.65728 15.0218 -80.0933 7.62706 14.9418 -80.9777 7.58503 14.8702 
-81.8582 7.47654 14.9057 -82.6644 7.23271 15.1556 -83.2742 6.80501 15.6101 
-72.9951 9.31512 15.4893 -72.3944 9.46359 15.675 -73.877 9.16077 15.307 
-74.8798 8.95619 15.2231 -75.8748 8.77893 15.2219 -76.8125 8.64302 15.2381 
-77.6957 8.54659 15.238 -78.5467 8.48326 15.2144 -79.3876 8.44687 15.1641 
-80.2348 8.42854 15.0894 -81.097 8.40094 15.0249 -81.9632 8.30097 15.0659 
-82.7762 8.04003 15.3344 -83.4393 7.55384 15.8573 -73.0635 9.85022 15.6243 
-73.3757 10.4922 15.6886 -74.0257 10.0402 15.4777 -75.0985 9.79588 15.349 
-76.0876 9.59342 15.3324 -77.0131 9.44102 15.3489 -77.8813 9.33645 15.3517 
-78.7123 9.27379 15.3281 -79.5308 9.24429 15.2772 -80.3529 9.23333 15.2041 
-81.1905 9.22051 15.143 -82.0472 9.14701 15.1868 -82.876 8.89943 15.4687 
-83.5751 8.38943 16.0477 -74.3909 11.1015 15.587 -73.5283 11.1996 15.7375 
-75.3121 10.6808 15.4703 -76.2647 10.4311 15.4385 -77.1755 10.2604 15.4443 
-78.0324 10.1467 15.442 -78.8477 10.0782 15.4156 -79.6445 10.0503 15.3681 
-80.4465 10.0447 15.3043 -81.2427 10.0223 15.2422 -82.0664 9.99264 15.2734 
-82.9306 9.8246 15.5382 -83.6978 9.32825 16.1404 -74.0022 11.9748 15.6953 
-73.1385 11.6417 15.8108 -73.2007 12.4088 15.824 -74.8933 11.9291 15.5949 
-75.5521 11.574 15.5497 -76.4183 11.2986 15.5289 -77.3002 11.1121 15.5272 
-78.1485 10.9888 15.517 -78.9579 10.9065 15.4884 -79.7219 10.848 15.4473 
-80.496 10.8514 15.4162 -81.3011 10.8322 15.3827 -81.964 10.6746 15.3542 
-82.8356 10.8157 15.5749 -83.7999 10.4299 16.109 -74.0484 12.9456 15.7551 
-73.3526 13.3019 15.8847 -74.8591 12.6767 15.657 -75.6932 12.4285 15.6116 
-76.5238 12.1768 15.6075 -77.3785 11.989 15.6153 -78.2216 11.8571 15.6071 
-79.0364 11.7611 15.5796 -79.8152 11.6654 15.5533 -80.4356 11.5124 15.5228 
-81.2898 11.7271 15.6127 -82.2217 11.4889 15.5971 -83.0457 11.6275 15.764 
-83.5647 11.314 15.9117 -74.1148 13.7629 15.8582 -73.5888 13.9814 15.9652 
-74.872 13.5437 15.7666 -75.7227 13.2821 15.7143 -76.5562 13.0274 15.7051 
-77.3843 12.8514 15.7412 -78.2313 12.7268 15.7702 -79.0578 12.6076 15.7496 
-79.8658 12.5051 15.7314 -80.7248 12.3499 15.7507 -81.5442 12.5352 15.9085 
-82.1637 12.3301 15.8814 -82.8211 12.1357 15.8748 -74.1032 14.3418 15.9903 
-74.4191 14.9039 16.1615 -74.8446 14.3993 15.9709 -75.7264 14.1253 15.9068 
-76.5861 13.8441 15.8945 -77.27 13.5477 15.8853 -78.1412 13.6157 16.0638 
-79.0229 13.3974 16.0521 -79.8219 13.2824 16.0179 -80.5937 13.1766 16.0188 
-81.3601 13.1451 16.0947 -75.0803 15.0551 16.2165 -74.8789 15.439 16.3856 
-75.7233 14.8782 16.1914 -76.5868 14.6268 16.2003 -77.515 14.283 16.2336 
-78.3532 14.3233 16.4589 -78.9971 14.1197 16.4415 -79.7664 13.9814 16.3881 
-80.5296 13.8903 16.3277 -81.1578 13.7431 16.2879 -75.6274 15.5122 16.4715 
-76.5019 15.3553 16.5272 -77.3889 15.0873 16.5761 -78.099 14.8093 16.6252 
-72.4822 -9.5054 13.0758 -71.9599 -10.0882 13.2138 -71.6384 -9.61611 13.2181 
-73.4228 -9.73221 12.9737 -72.7001 -10.2667 13.1373 -74.2364 -9.88632 12.9617 
-73.5736 -10.3873 13.0835 -74.2593 -10.3877 13.0741 -37.3633 -1.49624 10.8893 
-36.7466 -2.159 11.1646 -36.5169 -1.53218 10.9973 -38.2687 -1.92927 10.9505 
-37.4269 -2.5097 11.2104 -39.1507 -2.26982 11.0141 -38.279 -2.88445 11.2795 
-40.0466 -2.56208 11.0827 -39.16 -3.2095 11.3504 -40.939 -2.79966 11.1789 
-40.067 -3.47332 11.4228 -41.751 -2.961 11.328 -40.993 -3.62566 11.5097 
-41.7975 -3.56497 11.5901 -69.9531 -8.19302 13.4535 -69.4688 -8.72221 13.5536 
-69.1726 -8.22802 13.5772 -70.8589 -8.54168 13.3403 -70.1393 -9.01048 13.4544 
[...]
POINT_DATA 17746
SCALARS scalars float
LOOKUP_TABLE default
-1000 -1000 -1000 -1000 -1000 -1000 -1000 -1000 -1000 
-1000 -1000 -1000 -1000 -1000 -1000 -1000 -1000 -1000 
-1000 -1000 -1000 -1000 -1000 -1000 -1000 -1000 -1000 
-1000 -1000 -1000 -1000 -1000 -1000 -1000 -1000 -1000 
-1000 -1000 -1000 -1000 -1000 -1000 -1000 -1000 -1000 
-1000 -1000 -1000 -1000 -1000 -1000 -1000 -1000 -1000 
-1000 -1000 -1000 -1000 -1000 -1000 -1000 -1000 -1000 
-1000 -1000 -1000 -1000 -1000 -1000 -1000 -1000 -1000 
-1000 -1000 -1000 -1000 -1000 -1000 -1000 -1000 -1000 
-1000 -1000 -1000 -1000 -1000 -1000 -1000 -1000 -1000 
-1000 -1000 -1000 -1000 -1000 -1000 -1000 -1000 -1000 
-1000 -1000 -1000 -1000 -1000 -1000 -1000 -1000 -1000 
-1000 -1000 -1000 -1000 -1000 -1000 -1000 -1000 -1000 
-1000 -1000 -1000 -1000 -1000 -1000 -1000 -1000 -1000 
-1000 -1000 -1000 -1000 -1000 -1000 -1000 -1000 -1000 
-1000 -1000 -1000 -1000 -1000 -1000 -1000 -1000 -1000 
-1000 -1000 -1000 -1000 -1000 -1000 -1000 -1000 -1000 
-1000 -1000 -1000 -1000 -1000 -1000 -1000 -1000 -1000 
-1000 -1000 -1000 -1000 -1000 -1000 -1000 -1000 -1000 
-1000 -1000 -1000 -1000 -1000 -1000 -1000 -1000 -1000 
-1000 -1000 -1000 -1000 -1000 -1000 -1000 -1000 -1000 
-1000 -1000 -1000 -1000 -1000 -1000 -1000 -1000 -1000 
-1000 -1000 -1000 -1000 -1000 -1000 -1000 -1000 -1000 
-1000 -1000 -1000 -1000 -1000 -1000 -1000 -1000 -1000 
-1000 -1000 -1000 -1000 -1000 -1000 -1000 -1000 -1000 
-1000 -1000 -1000 -1000 -1000 -1000 -1000 -1000 -1000 
-1000 -1000 -1000 -1000 -1000 -1000 -1000 -1000 -1000 
-1000 -1000 -1000 -1000 -1000 -1000 -1000 -1000 -1000 
-1000 -1000 -1000 -1000 -1000 -1000 -1000 -1000 -1000 
-1000 -1000 -1000 -1000 -1000 -1000 -1000 -1000 -1000 
-1000 -1000 -1000 -1000 -1000 -1000 -1000 -1000 -1000 
-1000 -1000 -1000 -1000 -1000 -1000 -1000 -1000 -1000 
-1000 -1000 -1000 -1000 -1000 -1000 -1000 -1000 -1000 
-1000 -1000 -1000 -1000 -1000 -1000 -1000 -1000 -1000 
-1000 -1000 -1000 -1000 -1000 -1000 -1000 -1000 -1000 
-1000 -1000 -1000 -1000 -1000 -1000 -1000 -1000 -1000 
-1000 -1000 -1000 -1000 -1000 -1000 -1000 -1000 -1000 
-1000 -1000 -1000 -1000 -1000 -1000 -1000 -1000 -1000 
-1000 -1000 -1000 -1000 -1000 -1000 -1000 -1000 -1000 
-1000 -1000 -1000 -1000 -1000 -1000 -1000 -1000 -1000 
-1000 -1000 -1000 -1000 -1000 -1000 -1000 -1000 -1000 
-1000 -1000 -1000 -1000 -1000 -1000 -1000 -1000 -1000 
-1000 -1000 -1000 -1000 -1000 -1000 -1000 -1000 -1000 
-1000 -1000 -1000 -1000 -1000 -1000 -1000 -1000 -1000 
-1000 -1000 -1000 -1000 -1000 -1000 -1000 -1000 -1000 
-1000 -1000 -1000 -1000 -1000 -1000 -1000 -1000 -1000 
-1000 -1000 -1000 -1000 -1000 -1000 -1000 -1000 -1000 
-1000 -1000 -1000 -1000 -1000 -1000 -1000 -1000 -1000 
-1000 -1000 -1000 -1000 -1000 -1000 -1000 -1000 -1000 
-1000 -1000 -1000 -1000 -1000 -1000 -1000 -1000 -1000 
-1000 -1000 -1000 -1000 -1000 -1000 -1000 -1000 -1000 
-1000 -1000 -1000 -1000 -1000 -1000 -1000 -1000 -1000 
-1000 -1000 -1000 -1000 -1000 -1000 -1000 -1000 -1000 
-1000 -1000 -1000 -1000 -1000 -1000 -1000 -1000 -1000 
-1000 -1000 -1000 -1000 -1000 -1000 -1000 -1000 -1000 
-1000 -1000 -1000 -1000 -1000 -1000 -1000 -1000 -1000 
-1000 -1000 -1000 -1000 -1000 -1000 -1000 -1000 -1000 
-1000 -1000 -1000 -1000 -1000 -1000 -1000 -1000 -1000 
-1000 -1000 -1000 -1000 -1000 -1000 -1000 -1000 -1000 
-1000 -1000 -1000 -1000 -1000 -1000 -1000 -1000 -1000 
-1000 -1000 -1000 -1000 -1000 -1000 -1000 -1000 -1000 
-1000 -1000 -1000 -1000 -1000 -1000 -1000 -1000 -1000 
-1000 -1000 -1000 -1000 -1000 -1000 -1000 -1000 -1000 
-1000 -1000 -1000 -1000 -1000 -1000 -1000 -1000 -1000 
-1000 -1000 -1000 -1000 -1000 -1000 -1000 -1000 -1000 
-1000 -1000 -1000 -1000 -1000 -1000 -1000 -1000 -1000 
-1000 -1000 -1000 -1000 -1000 -1000 -1000 -1000 -1000 
-1000 -1000 -1000 -1000 -1000 -1000 -1000 -1000 -1000 
-1000 -1000 -1000 -1000 -1000 -1000 -1000 -1000 -1000 
-1000 -1000 -1000 -1000 -1000 -1000 -1000 -1000 -1000 
-1000 -1000 -1000 -1000 -1000 -1000 -1000 -1000 -1000 
-1000 -1000 -1000 -1000 -1000 -1000 -1000 -1000 -1000 
-1000 -1000 -1000 -1000 -1000 -1000 -1000 -1000 -1000 
-1000 -1000 -1000 -1000 -1000 -1000 -1000 -1000 -1000 
-1000 -1000 -1000 -1000 -1000 -1000 -1000 -1000 -1000 
-1000 -1000 -1000 -1000 -1000 -1000 -1000 -1000 -1000 
-1000 -1000 -1000 -1000 -1000 -1000 -1000 -1000 -1000 
-1000 -1000 -1000 -1000 -1000 -1000 -1000 -1000 -1000 
-1000 -1000 -1000 -1000 -1000 -1000 -1000 -1000 -1000 
-1000 -1000 -1000 -1000 -1000 -1000 -1000 -1000 -1000 
-1000 -1000 -1000 -1000 -1000 -1000 -1000 -1000 -1000 
-1000 -1000 -1000 -1000 -1000 -1000 -1000 -1000 -1000 
-1000 -1000 -1000 -1000 -1000 -1000 -1000 -1000 -1000 
-1000 -1000 -1000 -1000 -1000 -1000 -1000 -1000 -1000 
-1000 -1000 -1000 -1000 -1000 -1000 -1000 -1000 -1000 
-1000 -1000 -1000 -1000 -1000 -1000 -1000 -1000 -1000 
-1000 -1000 -1000 -1000 -1000 -1000 -1000 -1000 -1000 
-1000 -1000 -1000 -1000 -1000 -1000 -1000 -1000 -1000 
-1000 -1000 -1000 -1000 -1000 -1000 -1000 -1000 -1000 
-1000 -1000 -1000 -1000 -1000 -1000 -1000 -1000 -1000 
-1000 -1000 -1000 -1000 -1000 -1000 -1000 -1000 -1000 
-1000 -1000 -1000 -1000 -1000 -1000 -1000 -1000 -1000 
-1000 -1000 -1000 -1000 -1000 -1000 -1000 -1000 -1000 
-1000 -1000 -1000 -1000 -1000 -1000 -1000 -1000 -1000 
-1000 -1000 -1000 -1000 -1000 -1000 -1000 -1000 -1000 
-1000 -1000 -1000 -1000 -1000 -1000 -1000 -1000 -1000 
-1000 -1000 -1000 -1000 -1000 -1000 -1000 -1000 -1000 
-1000 -1000 -1000 -1000 -1000 -1000 -1000 -1000 -1000 
-1000 -1000 -1000 -1000 -1000 -1000 -1000 -1000 -1000 
-1000 -1000 -1000 -1000 -1000 -1000 -1000 -1000 -1000 
-1000 -1000 -1000 -1000 -1000 -1000 -1000 -1000 -1000 
-1000 -1000 -1000 -1000 -1000 -1000 -1000 -1000 -1000 
-1000 -1000 -1000 -1000 -1000 -1000 -1000 -1000 -1000 
-1000 -1000 -1000 -1000 -1000 -1000 -1000 -1000 -1000 
-1000 -1000 -1000 -1000 -1000 -1000 -1000 -1000 -1000 
-1000 -1000 -1000 -1000 -1000 -1000 -1000 -1000 -1000 
-1000 -1000 -1000 -1000 -1000 -1000 -1000 -1000 -1000 
-1000 -1000 -1000 -1000 -1000 -1000 -1000 -1000 -1000 
-1000 -1000 -1000 -1000 -1000 -1000 -1000 -1000 -1000 
-1000 -1000 -1000 -1000 -1000 -1000 -1000 -1000 -1000 
-1000 -1000 -1000 -1000 -1000 -1000 -1000 -1000 -1000 
-1000 -1000 -1000 -1000 -1000 -1000 -1000 -1000 -1000 
-1000 -1000 -1000 -1000 -1000 -1000 -1000 -1000 -1000 
-1000 -1000 -1000 -1000 -1000 -1000 -1000 -1000 -1000 
-1000 -1000 -1000 -1000 -1000 -1000 -1000 -1000 -1000 
-1000 -1000 -1000 -1000 -1000 -1000 -1000 -1000 -1000 
-1000 -1000 -1000 -1000 -1000 -1000 -1000 -1000 -1000 
-1000 -1000 -1000 -1000 -1000 -1000 -1000 -1000 -1000 
-1000 -1000 -1000 -1000 -1000 -1000 -1000 -1000 -1000 
-1000 -1000 -1000 -1000 -1000 -1000 -1000 -1000 -1000 
-1000 -1000 -1000 -1000 -1000 -1000 -1000 -1000 -1000 
-1000 -1000 -1000 -1000 -1000 -1000 -1000 -1000 -1000 
-1000 -1000 -1000 -1000 -1000 -1000 -1000 -1000 -1000 
-1000 -1000 -1000 -1000 -1000 -1000 -1000 -1000 -1000 
-1000 -1000 -1000 -1000 -1000 -1000 -1000 -1000 -1000 
-1000 -1000 -1000 -1000 -1000 -1000 -1000 -1000 -1000 
-1000 -1000 -1000 -1000 -1000 -1000 -1000 -1000 -1000 
-1000 -1000 -1000 -1000 -1000 -1000 -1000 -1000 -1000 
-1000 -1000 -1000 -1000 -1000 -1000 -1000 -1000 -1000 
-1000 -1000 -1000 -1000 -1000 -1000 -1000 -1000 -1000 
-1000 -1000 -1000 -1000 -1000 -1000 -1000 -1000 -1000 
-1000 -1000 -1000 -1000 -1000 -1000 -1000 -1000 -1000 
-1000 -1000 -1000 -1000 -1000 -1000 -1000 -1000 -1000 
-1000 -1000 -1000 -1000 -1000 -1000 -1000 -1000 -1000 
-1000 -1000 -1000 -1000 -1000 -1000 -1000 -1000 -1000 
-1000 -1000 -1000 -1000 -1000 -1000 -1000 -1000 -1000 
-1000 -1000 -1000 -1000 -1000 -1000 -1000 -1000 -1000 
-1000 -1000 -1000 -1000 -1000 -1000 -1000 -1000 -1000 
-1000 -1000 -1000 -1000 -1000 -1000 -1000 -1000 -1000 
-1000 -1000 -1000 -1000 -1000 -1000 -1000 -1000 -1000 
-1000 -1000 -1000 -1000 -1000 -1000 -1000 -1000 -1000 
-1000 -1000 -1000 -1000 -1000 -1000 -1000 -1000 -1000 
-1000 -1000 -1000 -1000 -1000 -1000 -1000 -1000 -1000 
-1000 -1000 -1000 -1000 -1000 -1000 -1000 -1000 -1000 
-1000 -1000 -1000 -1000 -1000 -1000 -1000 -1000 -1000 
-1000 -1000 -1000 -1000 -1000 -1000 -1000 -1000 -1000 
-1000 -1000 -1000 -1000 -1000 -1000 -1000 -1000 -1000 
-1000 -1000 -1000 -1000 -1000 -1000 -1000 -1000 -1000 
-1000 -1000 -1000 -1000 -1000 -1000 -1000 -1000 -1000 
-1000 -1000 -1000 -1000 -1000 -1000 -1000 -1000 -1000 
-1000 -1000 -1000 -1000 -1000 -1000 -1000 -1000 -1000 
-1000 -1000 -1000 -1000 -1000 -1000 -1000 -1000 -1000 
-1000 -1000 -1000 -1000 -1000 -1000 -1000 -1000 -1000 
-1000 -1000 -1000 -1000 -1000 -1000 -1000 -1000 -1000 
-1000 -1000 -1000 -1000 -1000 -1000 -1000 -1000 -1000 
-1000 -1000 -1000 -1000 -1000 -1000 -1000 -1000 -1000 
-1000 -1000 -1000 -1000 -1000 -1000 -1000 -1000 -1000 
-1000 -1000 -1000 -1000 -1000 -1000 -1000 -1000 -1000 
-1000 -1000 -1000 -1000 -1000 -1000 -1000 -1000 -1000 
-1000 -1000 -1000 -1000 -1000 -1000 -1000 -1000 -1000 
-1000 -1000 -1000 -1000 -1000 -1000 -1000 -1000 -1000 
-1000 -1000 -1000 -1000 -1000 -1000 -1000 -1000 -1000 
-1000 -1000 -1000 -1000 -1000 -1000 -1000 -1000 -1000 
-1000 -1000 -1000 -1000 -1000 -1000 -1000 -1000 -1000 
-1000 -1000 -1000 -1000 -1000 -1000 -1000 -1000 -1000 
-1000 -1000 -1000 -1000 -1000 -1000 -1000 -1000 -1000 
-1000 -1000 -1000 -1000 -1000 -1000 -1000 -1000 -1000 
-1000 -1000 -1000 -1000 -1000 -1000 -1000 -1000 -1000 
-1000 -1000 -1000 -1000 -1000 -1000 -1000 -1000 -1000 
-1000 -1000 -1000 -1000 -1000 -1000 -1000 -1000 -1000 
-1000 -1000 -1000 -1000 -1000 -1000 -1000 -1000 -1000 
-1000 -1000 -1000 -1000 -1000 -1000 -1000 -1000 -1000 
-1000 -1000 -1000 -1000 -1000 -1000 -1000 -1000 -1000 
-1000 -1000 -1000 -1000 -1000 -1000 -1000 -1000 -1000 
-1000 -1000 -1000 -1000 -1000 -1000 -1000 -1000 -1000 
-1000 -1000 -1000 -1000 -1000 -1000 -1000 -1000 -1000 
-1000 -1000 -1000 -1000 -1000 -1000 -1000 -1000 -1000 
-1000 -1000 -1000 -1000 -1000 -1000 -1000 -1000 -1000 
-1000 -1000 -1000 -1000 -1000 -1000 -1000 -1000 -1000 
-1000 -1000 -1000 -1000 -1000 -1000 -1000 -1000 -1000 
-1000 -1000 -1000 -1000 -1000 -1000 -1000 -1000 -1000 
-1000 -1000 -1000 -1000 -1000 -1000 -1000 -1000 -1000 
-1000 -1000 -1000 -1000 -1000 -1000 -1000 -1000 -1000 
-1000 -1000 -1000 -1000 -1000 -1000 -1000 -1000 -1000 
-1000 -1000 -1000 -1000 -1000 -1000 -1000 -1000 -1000 
-1000 -1000 -1000 -1000 -1000 -1000 -1000 -1000 -1000 
-1000 -1000 -1000 -1000 -1000 -1000 -1000 -1000 -1000 
-1000 -1000 -1000 -1000 -1000 -1000 -1000 -1000 -1000 
-1000 -1000 -1000 -1000 -1000 -1000 -1000 -1000 -1000 
-1000 -1000 -1000 -1000 -1000 -1000 -1000 -1000 -1000 
-1000 -1000 -1000 -1000 -1000 -1000 -1000 -1000 -1000 
-1000 -1000 -1000 -1000 -1000 -1000 -1000 -1000 -1000 
-1000 -1000 -1000 -1000 -1000 -1000 -1000 -1000 -1000 
-1000 -1000 -1000 -1000 -1000 -1000 -1000 -1000 -1000 
-1000 -1000 -1000 -1000 -1000 -1000 -1000 -1000 -1000 
-1000 -1000 -1000 -1000 -1000 -1000 -1000 -1000 -1000 
-1000 -1000 -1000 -1000 -1000 -1000 -1000 -1000 -1000 
-1000 -1000 -1000 -1000 -1000 -1000 -1000 -1000 -1000 
-1000 -1000 -1000 -1000 -1000 -1000 -1000 -1000 -1000 
-1000 -1000 -1000 -1000 -1000 -1000 -1000 -1000 -1000 
-1000 -1000 -1000 -1000 -1000 -1000 -1000 -1000 -1000 
-1000 -1000 -1000 -1000 -1000 -1000 -1000 -1000 -1000 
-1000 -1000 -1000 -1000 -1000 -1000 -1000 -1000 -1000 
-1000 -1000 -1000 -1000 -1000 -1000 -1000 -1000 -1000 
-1000 -1000 -1000 -1000 -1000 -1000 -1000 -1000 -1000 
-1000 -1000 -1000 -1000 -1000 -1000 -1000 -1000 -1000 
-1000 -1000 -1000 -1000 -1000 -1000 -1000 -1000 -1000 
-1000 -1000 -1000 -1000 -1000 -1000 -1000 -1000 -1000 
-1000 -1000 -1000 -1000 -1000 -1000 -1000 -1000 -1000 
-1000 -1000 -1000 -1000 -1000 -1000 -1000 -1000 -1000 
-1000 -1000 -1000 -1000 -1000 -1000 -1000 -1000 -1000 
-1000 -1000 -1000 -1000 -1000 -1000 -1000 -1000 -1000 
-1000 -1000 -1000 -1000 -1000 -1000 -1000 -1000 -1000 
-1000 -1000 -1000 -1000 -1000 -1000 -1000 -1000 -1000 
-1000 -1000 -1000 -1000 -1000 -1000 -1000 -1000 -1000 
-1000 -1000 -1000 -1000 -1000 -1000 -1000 -1000 -1000 
-1000 -1000 -1000 -1000 -1000 -1000 -1000 -1000 -1000 
-1000 -1000 -1000 -1000 -1000 -1000 -1000 -1000 -1000 
-1000 -1000 -1000 -1000 -1000 -1000 -1000 -1000 -1000 
-1000 -1000 -1000 -1000 -1000 -1000 -1000 -1000 -1000 
-1000 -1000 -1000 -1000 -1000 -1000 -1000 -1000 -1000 
-1000 -1000 -1000 -1000 -1000 -1000 -1000 -1000 -1000 
-1000 -1000 -1000 -1000 -1000 -1000 -1000 -1000 -1000 
-1000 -1000 -1000 -1000 -1000 -1000 -1000 -1000 -1000 
-1000 -1000 -1000 -1000 -1000 -1000 -1000 -1000 -1000 
-1000 -1000 -1000 -1000 -1000 -1000 -1000 -1000 -1000 
-1000 -1000 -1000 -1000 -1000 -1000 -1000 -1000 -1000 
-1000 -1000 -1000 -1000 -1000 -1000 -1000 -1000 -1000 
-1000 -1000 -1000 -1000 -1000 -1000 -1000 -1000 -1000 
-1000 -1000 -1000 -1000 -1000 -1000 -1000 -1000 -1000 
-1000 -1000 -1000 -1000 -1000 -1000 -1000 -1000 -1000 
-1000 -1000 -1000 -1000 -1000 -1000 -1000 -1000 -1000 
-1000 -1000 -1000 -1000 -1000 -1000 -1000 -1000 -1000 
-1000 -1000 -1000 -1000 -1000 -1000 -1000 -1000 -1000 
-1000 -1000 -1000 -1000 -1000 -1000 -1000 -1000 -1000 
-1000 -1000 -1000 -1000 -1000 -1000 -1000 -1000 -1000 
-1000 -1000 -1000 -1000 -1000 -1000 -1000 -1000 -1000 
-1000 -1000 -1000 -1000 -1000 -1000 -1000 -1000 -1000 
-1000 -1000 -1000 -1000 -1000 -1000 -1000 -1000 -1000 
-1000 -1000 -1000 -1000 -1000 -1000 -1000 -1000 -1000 
-1000 -1000 -1000 -1000 -1000 -1000 -1000 -1000 -1000 
-1000 -1000 -1000 -1000 -1000 -1000 -1000 -1000 -1000 
-1000 -1000 -1000 -1000 -1000 -1000 -1000 -1000 -1000 
-1000 -1000 -1000 -1000 -1000 -1000 -1000 -1000 -1000 
-1000 -1000 -1000 -1000 -1000 -1000 -1000 -1000 -1000 
-1000 -1000 -1000 -1000 -1000 -1000 -1000 -1000 -1000 
-1000 -1000 -1000 -1000 -1000 -1000 -1000 -1000 -1000 
-1000 -1000 -1000 -1000 -1000 -1000 -1000 -1000 -1000 
-1000 -1000 -1000 -1000 -1000 -1000 -1000 -1000 -1000 
-1000 -1000 -1000 -1000 -1000 -1000 -1000 -1000 -1000 
-1000 -1000 -1000 -1000 -1000 -1000 -1000 -1000 -1000 
-1000 -1000 -1000 -1000 -1000 -1000 -1000 -1000 -1000 
-1000 -1000 -1000 -1000 -1000 -1000 -1000 -1000 -1000 
-1000 -1000 -1000 -1000 -1000 -1000 -1000 -1000 -1000 
-1000 -1000 -1000 -1000 -1000 -1000 -1000 -1000 -1000 
-1000 -1000 -1000 -1000 -1000 -1000 -1000 -1000 -1000 
-1000 -1000 -1000 -1000 -1000 -1000 -1000 -1000 -1000 
-1000 -1000 -1000 -1000 -1000 -1000 -1000 -1000 -1000 
-1000 -1000 -1000 -1000 -1000 -1000 -1000 -1000 -1000 
-1000 -1000 -1000 -1000 -1000 -1000 -1000 -1000 -1000 
-1000 -1000 -1000 -1000 -1000 -1000 -1000 -1000 -1000 
-1000 -1000 -1000 -1000 -1000 -1000 -1000 -1000 -1000 
-1000 -1000 -1000 -1000 -1000 -1000 -1000 -1000 -1000 
-1000 -1000 -1000 -1000 -1000 -1000 -1000 -1000 -1000 
-1000 -1000 -1000 -1000 -1000 -1000 -1000 -1000 -1000 
-1000 -1000 -1000 -1000 -1000 -1000 -1000 -1000 -1000 
-1000 -1000 -1000 -1000 -1000 -1000 -1000 -1000 -1000 
-1000 -1000 -1000 -1000 -1000 -1000 -1000 -1000 -1000 
-1000 -1000 -1000 -1000 -1000 -1000 -1000 -1000 -1000 
-1000 -1000 -1000 -1000 -1000 -1000 -1000 -1000 -1000 
-1000 -1000 -1000 -1000 -1000 -1000 -1000 -1000 -1000 
-1000 -1000 -1000 -1000 -1000 -1000 -1000 -1000 -1000 
-1000 -1000 -1000 -1000 -1000 -1000 -1000 -1000 -1000 
-1000 -1000 -1000 -1000 -1000 -1000 -1000 -1000 -1000 
-1000 -1000 -1000 -1000 -1000 -1000 -1000 -1000 -1000 
-1000 -1000 -1000 -1000 -1000 -1000 -1000 -1000 -1000 
-1000 -1000 -1000 -1000 -1000 -1000 -1000 -1000 -1000 
-1000 -1000 -1000 -1000 -1000 -1000 -1000 -1000 -1000 
-1000 -1000 -1000 -1000 -1000 -1000 -1000 -1000 -1000 
-1000 -1000 -1000 -1000 -1000 -1000 -1000 -1000 -1000 
-1000 -1000 -1000 -1000 -1000 -1000 -1000 -1000 -1000 
-1000 -1000 -1000 -1000 -1000 -1000 -1000 -1000 -1000 
-1000 -1000 -1000 -1000 -1000 -1000 -1000 -1000 -1000 
-1000 -1000 -1000 -1000 -1000 -1000 -1000 -1000 -1000 
-1000 -1000 -1000 -1000 -1000 -1000 -1000 -1000 -1000 
-1000 -1000 -1000 -1000 -1000 -1000 -1000 -1000 -1000 
-1000 -1000 -1000 -1000 -1000 -1000 -1000 -1000 -1000 
-1000 -1000 -1000 -1000 -1000 -1000 -1000 -1000 -1000 
-1000 -1000 -1000 -1000 -1000 -1000 -1000 -1000 -1000 
-1000 -1000 -1000 -1000 -1000 -1000 -1000 -1000 -1000 
-1000 -1000 -1000 -1000 -1000 -1000 -1000 -1000 -1000 
-1000 -1000 -1000 -1000 -1000 -1000 -1000 -1000 -1000 
-1000 -1000 -1000 -1000 -1000 -1000 -1000 -1000 -1000 
-1000 -1000 -1000 -1000 -1000 -1000 -1000 -1000 -1000 
-1000 -1000 -1000 -1000 -1000 -1000 -1000 -1000 -1000 
-1000 -1000 -1000 -1000 -1000 -1000 -1000 -1000 -1000 
-1000 -1000 -1000 -1000 -1000 -1000 -1000 -1000 -1000 
-1000 -1000 -1000 -1000 -1000 -1000 -1000 -1000 -1000 
-1000 -1000 -1000 -1000 -1000 -1000 -1000 -1000 -1000 
-1000 -1000 -1000 -1000 -1000 -1000 -1000 -1000 -1000 
-1000 -1000 -1000 -1000 -1000 -1000 -1000 -1000 -1000 
-1000 -1000 -1000 -1000 -1000 -1000 -1000 -1000 -1000 
-1000 -1000 -1000 -1000 -1000 -1000 -1000 -1000 -1000 
-1000 -1000 -1000 -1000 -1000 -1000 -1000 -1000 -1000 
-1000 -1000 -1000 -1000 -1000 -1000 -1000 -1000 -1000 
-1000 -1000 -1000 -1000 -1000 -1000 -1000 -1000 -1000 
-1000 -1000 -1000 -1000 -1000 -1000 -1000 -1000 -1000 
-1000 -1000 -1000 -1000 -1000 -1000 -1000 -1000 -1000 
-1000 -1000 -1000 -1000 -1000 -1000 -1000 -1000 -1000 
-1000 -1000 -1000 -1000 -1000 -1000 -1000 -1000 -1000 
-1000 -1000 -1000 -1000 -1000 -1000 -1000 -1000 -1000 
-1000 -1000 -1000 -1000 -1000 -1000 -1000 -1000 -1000 
-1000 -1000 -1000 -1000 -1000 -1000 -1000 -1000 -1000 
-1000 -1000 -1000 -1000 -1000 -1000 -1000 -1000 -1000 
-1000 -1000 -1000 -1000 -1000 -1000 -1000 -1000 -1000 
-1000 -1000 -1000 -1000 -1000 -1000 -1000 -1000 -1000 
-1000 -1000 -1000 -1000 -1000 -1000 -1000 -1000 -1000 
-1000 -1000 -1000 -1000 -1000 -1000 -1000 -1000 -1000 
-1000 -1000 -1000 -1000 -1000 -1000 -1000 -1000 -1000 
-1000 -1000 -1000 -1000 -1000 -1000 -1000 -1000 -1000 
-1000 -1000 -1000 -1000 -1000 -1000 -1000 -1000 -1000 
-1000 -1000 -1000 -1000 -1000 -1000 -1000 -1000 -1000 
-1000 -1000 -1000 -1000 -1000 -1000 -1000 -1000 -1000 
-1000 -1000 -1000 -1000 -1000 -1000 -1000 -1000 -1000 
-1000 -1000 -1000 -1000 -1000 -1000 -1000 -1000 -1000 
-1000 -1000 -1000 -1000 -1000 -1000 -1000 -1000 -1000 
-1000 -1000 -1000 -1000 -1000 -1000 -1000 -1000 -1000 
-1000 -1000 -1000 -1000 -1000 -1000 -1000 -1000 -1000 
-1000 -1000 -1000 -1000 -1000 -1000 -1000 -1000 -1000 
-1000 -1000 -1000 -1000 -1000 -1000 -1000 -1000 -1000 
-1000 -1000 -1000 -1000 -1000 -1000 -1000 -1000 -1000 
-1000 -1000 -1000 -1000 -1000 -1000 -1000 -1000 -1000 
-1000 -1000 -1000 -1000 -1000 -1000 -1000 -1000 -1000 
-1000 -1000 -1000 -1000 -1000 -1000 -1000 -1000 -1000 
-1000 -1000 -1000 -1000 -1000 -1000 -1000 -1000 -1000 
-1000 -1000 -1000 -1000 -1000 -1000 -1000 -1000 -1000 
-1000 -1000 -1000 -1000 -1000 -1000 -1000 -1000 -1000 
-1000 -1000 -1000 -1000 -1000 -1000 -1000 -1000 -1000 
-1000 -1000 -1000 -1000 -1000 -1000 -1000 -1000 -1000 
-1000 -1000 -1000 -1000 -1000 -1000 -1000 -1000 -1000 
-1000 -1000 -1000 -1000 -1000 -1000 -1000 -1000 -1000 
-1000 -1000 -1000 -1000 -1000 -1000 -1000 -1000 -1000 
-1000 -1000 -1000 -1000 -1000 -1000 -1000 -1000 -1000 
-1000 -1000 -1000 -1000 -1000 -1000 -1000 -1000 -1000 
-1000 -1000 -1000 -1000 -1000 -1000 -1000 -1000 -1000 
-1000 -1000 -1000 -1000 -1000 -1000 -1000 -1000 -1000 
-1000 -1000 -1000 -1000 -1000 -1000 -1000 -1000 -1000 
-1000 -1000 -1000 -1000 -1000 -1000 -1000 -1000 -1000 
-1000 -1000 -1000 -1000 -1000 -1000 -1000 -1000 -1000 
-1000 -1000 -1000 -1000 -1000 -1000 -1000 -1000 -1000 
-1000 -1000 -1000 -1000 -1000 -1000 -1000 -1000 -1000 
-1000 -1000 -1000 -1000 -1000 -1000 -1000 -1000 -1000 
-1000 -1000 -1000 -1000 -1000 -1000 -1000 -1000 -1000 
-1000 -1000 -1000 -1000 -1000 -1000 -1000 -1000 -1000 
-1000 -1000 -1000 -1000 -1000 -1000 -1000 -1000 -1000 
-1000 -1000 -1000 -1000 -1000 -1000 -1000 -1000 -1000 