# vtk DataFile Version 3.0
vtk output
ASCII
DATASET POLYDATA
POINTS 13638 float
-74.0017 -8.08596 -41.3177 -74.1613 -7.95492 -41.3283 -74.1401 -7.96957 -41.2909 
-74.1639 -7.95222 -41.3284 -74.7965 -7.36083 -41.3702 -74.7744 -7.38845 -41.2291 
-75.1561 -6.93193 -41.3937 -75.9185 -5.7346 -41.4429 -75.9681 -5.58224 -41.4459 
-75.9207 -5.71941 -41.2838 -75.6267 -6.25721 -41.4242 -61.8803 -9.69429 -40.4932 
-62.0974 -9.79072 -40.5083 -62.1865 -9.89585 -40.35 -62.6026 -9.90374 -40.5431 
-62.7638 -9.93388 -40.5542 -63.4569 -10.0379 -40.6018 -63.5719 -10.1775 -40.2702 
-63.85 -10.1292 -40.6289 -64.0965 -10.268 -40.4224 -64.0419 -10.179 -40.6421 
-64.6635 -10.3758 -40.6851 -64.8869 -10.4268 -40.7005 -64.8721 -10.5107 -40.4608 
-65.5251 -10.578 -40.7445 -65.7193 -10.7414 -40.3887 -66.2427 -10.6662 -40.7938 
-66.507 -10.6903 -40.8119 -66.7277 -10.7811 -40.6575 -66.4694 -10.9458 -40.1037 
-65.9676 -10.6312 -40.7749 -67.1424 -10.9347 -40.3077 -66.767 -10.7153 -40.8297 
-68.3494 -10.714 -40.9379 -68.427 -10.7435 -40.8512 -67.8584 -10.7536 -40.9044 
-67.8021 -10.8574 -40.5818 -67.4933 -10.7411 -40.8794 -67.0739 -10.7392 -40.8507 
-68.4581 -10.9175 -40.1065 -68.4145 -10.7073 -40.9423 -68.644 -10.6523 -40.9578 
-69.0774 -10.5506 -40.9872 -69.1977 -10.5246 -40.9954 -69.4927 -10.6956 -40.1578 
-70.2123 -10.2266 -41.064 -70.4182 -10.1634 -41.0779 -70.7428 -10.1455 -40.8586 
-70.2404 -10.4334 -40.4352 -70.1041 -10.2526 -41.0566 -70.7748 -10.3257 -40.1712 
-70.8219 -10.0352 -41.1052 -71.4944 -9.76488 -41.1505 -71.5066 -9.76021 -41.1513 
-71.511 -9.75798 -41.1516 -71.7262 -9.81488 -40.2858 -72.4725 -9.22936 -41.216 
-72.4951 -9.21399 -41.2175 -72.6146 -9.20414 -40.3811 -73.3577 -8.61231 -41.275 
-73.368 -8.60401 -41.2756 -73.4484 -8.54981 -40.4584 -74.2391 -7.8897 -40.5072 
-74.9857 -7.19233 -40.5583 -75.3827 -6.65805 -41.4085 -75.4435 -6.58591 -41.4125 
-75.659 -6.39899 -40.5363 -76.2249 -4.79472 -41.0925 -76.1603 -5.54789 -40.3931 
-76.1784 -4.84808 -41.4584 -76.2829 -3.84524 -41.4631 -76.2603 -3.14375 -41.4598 
-76.3512 -3.88734 -40.887 -76.2344 -4.36801 -41.4611 -75.8792 -1.39705 -41.4295 
-75.8406 -1.23591 -41.4264 -75.8424 -1.43508 -41.262 -76.1086 -2.22503 -41.4472 
-76.0919 -2.15747 -41.4459 -76.0636 -2.26572 -41.3609 -76.1688 -2.56242 -41.4521 
-58.5593 -7.18491 -40.26 -58.8622 -7.33742 -40.2811 -58.9321 -7.45357 -40.1764 
-58.9546 -7.39518 -40.2876 -59.769 -7.98976 -40.3447 -59.8735 -8.09628 -40.3521 
-59.8789 -8.13382 -40.1823 -59.6197 -7.85942 -40.3342 -60.3564 -8.55574 -40.3863 
-60.6681 -8.85246 -40.4083 -60.6622 -8.86408 -39.9539 -60.9549 -9.1098 -40.4285 
-61.4802 -9.48962 -40.4654 -61.4481 -9.55209 -39.7412 -62.5159 -10.0897 -40.0189 
-62.2484 -10.0748 -39.6494 -61.6275 -9.58507 -40.4757 -62.8984 -10.3373 -39.5557 
-62.6833 -9.92279 -40.5487 -64.0573 -10.4173 -39.8109 -63.5958 -10.4886 -39.4724 
-62.7155 -9.92911 -40.5509 -62.6992 -9.92651 -40.5498 -64.2865 -10.6656 -39.2739 
-64.7489 -10.6969 -39.5543 -66.0274 -10.9952 -39.7989 -65.5588 -10.9298 -39.6238 
-66.3555 -11.1976 -39.2118 -67.6693 -11.0644 -39.9072 -67.1036 -11.1727 -39.5366 
-67.8339 -11.2223 -39.2406 -68.7658 -11.1099 -39.1324 -69.5632 -10.9001 -39.4179 
-70.0327 -10.6644 -39.8813 -70.149 -10.7631 -39.3039 -70.9664 -10.3814 -39.3423 
-71.8501 -9.81684 -39.4372 -72.697 -9.17763 -39.5363 -73.5232 -8.50831 -39.6308 
-74.3378 -7.81956 -39.7037 -75.1285 -7.08757 -39.7179 -75.8773 -6.24707 -39.5917 
-76.4739 -4.67426 -40.0159 -76.3447 -5.46042 -39.6939 -76.3371 -3.09448 -40.7063 
-76.4959 -3.77005 -40.2042 -76.2544 -3.034 -41.4591 -75.6623 -0.666517 -41.1523 
-75.9431 -1.37652 -40.4728 -75.6868 -0.626254 -41.4144 -76.2269 -2.33284 -40.3869 
-75.5766 0.0976054 -41.4051 -75.5029 0.707375 -41.3985 -75.612 0.0201393 -40.8191 
-75.6384 -0.327399 -41.4104 -75.4103 1.59428 -41.39 -75.3977 1.72432 -41.3888 
-75.3744 1.56733 -41.2659 -75.4386 1.26785 -41.3928 -56.6317 -5.87172 -40.1251 
-56.7138 -5.93643 -40.1308 -56.7248 -5.98028 -40.0066 -56.4251 -5.68065 -40.1105 
-57.2037 -6.33927 -40.1653 -57.507 -6.52866 -40.1865 -57.4752 -6.61042 -39.7714 
-57.8504 -6.77443 -40.2106 -58.3663 -7.0804 -40.2466 -58.251 -7.21855 -39.53 
-59.4808 -7.91329 -39.8041 -59.0611 -7.79786 -39.3508 -58.4083 -7.10738 -40.2495 
-60.0371 -8.37814 -39.4459 -59.8506 -8.4155 -38.9719 -60.3811 -8.77588 -38.876 
-59.2406 -7.57065 -40.3076 -60.5572 -8.79447 -39.307 -61.36 -9.51514 -38.8798 
-62.1973 -10.1636 -38.7304 -63.2951 -10.6126 -39.056 -62.9974 -10.6155 -38.6994 
-63.6773 -10.8503 -38.6054 -64.7664 -10.9327 -38.8219 -64.244 -10.8951 -38.6992 
-64.8887 -11.2244 -38.0266 -65.6285 -11.205 -38.5829 -66.5258 -11.4206 -38.4137 
-67.125 -11.3806 -38.7326 -67.8357 -11.4412 -38.2556 -68.7211 -11.3439 -38.1482 
-69.4326 -11.0842 -38.7192 -70.1118 -10.9261 -38.3938 -71.0729 -10.423 -38.4668 
-71.9479 -9.84156 -38.5526 -72.8041 -9.19643 -38.6788 -73.6417 -8.50994 -38.8165 
-74.4584 -7.80867 -38.8936 -75.2373 -7.09088 -38.884 -75.8327 -6.47276 -38.7466 
-76.5063 -5.15107 -39.4171 -76.3216 -5.67492 -38.9786 -76.4849 -3.23313 -40.0212 
-76.6035 -3.89989 -39.5301 -76.6029 -4.76654 -38.9839 -75.7944 -0.741286 -40.4911 
-75.9984 -1.18247 -39.9396 -76.264 -2.0086 -39.4979 -76.5214 -3.03906 -39.4301 
-75.5327 0.831006 -40.6707 -75.7502 0.187866 -40.0209 -75.4829 0.863861 -41.3968 
-75.8769 -0.546004 -39.9499 -75.3371 2.28185 -40.9914 -75.5168 1.50019 -40.2807 
-75.3459 2.29951 -41.3839 -75.2187 3.60944 -41.372 -75.1858 3.64781 -41.3438 
-75.2833 2.99005 -41.3779 -75.3109 2.9878 -40.7236 -75.2142 3.65854 -41.3715 
-75.305 2.72109 -41.3801 -75.1215 4.33217 -41.3635 -75.0754 4.57348 -41.3598 
-75.1083 4.33695 -41.1133 -75.2116 3.67869 -41.3713 -55.0864 -4.38708 -40.0158 
-55.273 -4.56569 -40.029 -55.2901 -4.56617 -39.7527 -54.6239 -3.95362 -39.9831 
-55.5949 -4.87809 -40.0518 -55.9864 -5.26127 -40.0795 -56.0112 -5.2285 -39.476 
-56.1049 -5.37775 -40.0878 -56.7319 -5.89782 -39.1978 -57.4557 -6.55747 -38.9342 
-58.1879 -7.20128 -38.6856 -58.9415 -7.83996 -38.4506 -59.716 -8.48469 -38.2204 
-60.9352 -9.26897 -38.5057 -60.5179 -9.1122 -38.0592 -61.5182 -9.76752 -38.119 
-61.3028 -9.75746 -37.6873 -61.8435 -10.1215 -37.5507 -62.1656 -10.2421 -37.861 
-62.9739 -10.7645 -37.7648 -64.197 -11.1212 -38.0833 -63.6921 -11.0709 -37.8481 
-64.4235 -11.3503 -37.3982 -65.1433 -11.5344 -37.1207 -65.7037 -11.4984 -37.5225 
-67.0307 -11.5384 -38.0584 -66.421 -11.5541 -37.761 -67.176 -11.6707 -37.404 
-68.0951 -11.619 -37.2659 -68.864 -11.4527 -37.5426 -69.3156 -11.2574 -38.0395 
-69.4645 -11.3158 -37.4647 -70.2882 -10.9722 -37.4963 -71.179 -10.4938 -37.5567 
-72.1021 -9.95899 -37.5917 -73.0429 -9.23735 -37.9083 -73.8655 -8.54715 -38.0667 
-74.6661 -7.83447 -38.1395 -75.4272 -7.10199 -38.1302 -76.131 -6.25192 -38.0661 
-76.5182 -5.39267 -38.3026 -76.6779 -3.84886 -38.7017 -76.7106 -4.68248 -38.0406 
-76.1224 -1.22839 -39.2163 -76.3702 -2.02828 -38.4611 -76.57 -2.92262 -38.5769 
-75.6812 0.768696 -39.9928 -75.8522 0.354184 -39.4729 -75.9979 -0.372866 -39.125 
-75.4356 2.30945 -40.0771 -75.6174 1.64961 -39.356 -75.7658 0.931324 -39.4251 
-75.2776 3.67367 -40.4465 -75.4075 3.01745 -39.8122 -74.9654 5.04875 -40.9375 
-75.175 4.38141 -40.2177 -74.9778 5.02597 -41.352 -74.6517 6.93201 -41.325 
-74.6418 7.03534 -41.2852 -74.6521 6.3682 -41.3264 -74.6741 6.40986 -40.724 
-74.6524 7.0144 -41.3248 -74.7978 5.72693 -41.338 -74.6901 6.18127 -41.3295 
-74.7944 5.76768 -40.8105 -74.8782 5.40798 -41.3442 -74.6573 7.04367 -41.3251 
-74.7809 7.68943 -41.332 -74.7734 7.71455 -41.3053 -74.8908 8.24994 -41.3381 
-74.9767 8.87281 -41.3424 -74.9093 8.28273 -40.9101 -74.7857 7.71615 -41.3322 
-75.018 9.56343 -41.3435 -74.982 10.05 -41.3399 -75.0635 9.61962 -40.9505 
-74.9824 8.92283 -41.3427 -74.5396 11.7249 -41.3055 -74.4455 12.0021 -41.2984 
-74.579 11.7521 -41.0335 -74.7936 10.987 -41.3247 -74.7711 11.0499 -41.323 
-74.7946 11.0276 -41.2524 -74.8398 10.7923 -41.3283 -73.2646 14.5341 -41.2114 
-73.2299 14.6066 -41.2089 -73.2539 14.582 -41.1338 -73.423 14.2435 -41.223 
-71.7712 17.3035 -41.1025 -71.7644 17.3163 -41.102 -71.733 17.3467 -41.0832 
-71.7993 17.2559 -41.1046 -53.0128 -2.52327 -39.8695 -53.1327 -2.62731 -39.8779 
-53.1423 -2.63059 -39.724 -52.6519 -2.20803 -39.844 -53.5314 -2.97699 -39.906 
-53.8383 -3.24617 -39.9277 -53.8496 -3.22882 -39.4978 -54.0537 -3.4381 -39.9429 
-54.5562 -3.89058 -39.9783 -54.5694 -3.84611 -39.2462 -54.5755 -3.90836 -39.9797 
-55.2948 -4.48299 -38.9738 -56.0204 -5.13752 -38.6892 -56.7418 -5.80298 -38.4043 
-57.4543 -6.46794 -38.1332 -58.1483 -7.11062 -37.8954 -58.8488 -7.75551 -37.6383 
-59.6072 -8.45351 -37.3699 -60.3939 -9.16023 -37.1618 -61.1661 -9.81845 -36.9643 
-62.2965 -10.477 -37.152 -61.9424 -10.374 -36.8265 -62.574 -10.783 -36.581 
-44.913 5.25331 -39.2967 -45.0254 5.03843 -39.3049 -44.9785 5.02314 -39.1702 
-45.0923 4.92965 -39.3097 -45.2607 4.67895 -39.3219 -62.9431 -10.8976 -36.8788 
-63.8454 -11.3339 -36.8545 -64.7041 -11.6498 -36.584 -44.1844 7.30593 -39.2418 
-44.235 7.11737 -39.2458 -44.1563 7.11785 -39.1311 -44.2594 7.02184 -39.2477 
-44.4889 6.22378 -39.2653 -44.4462 6.21581 -39.2389 -44.5042 6.17131 -39.2665 
-44.5497 6.05579 -39.2699 -65.3692 -11.8593 -36.2948 -65.7119 -11.7043 -36.8436 
-65.9663 -11.909 -36.3671 -43.5632 9.77547 -39.1933 -43.6628 9.16729 -39.2016 
-43.5002 9.27958 -38.753 -43.8631 8.42851 -39.2171 -43.8853 8.34881 -39.2188 
-43.834 8.35978 -39.1832 -43.9014 8.30833 -39.22 -43.9433 8.17546 -39.2232 
-66.3805 -11.7703 -36.8927 -67.1953 -11.9053 -36.4087 -43.5441 10.3625 -39.1905 
-43.4235 10.3071 -38.8757 -43.5611 10.6875 -39.1909 -43.4595 10.9876 -38.8888 
-43.5717 11.0078 -39.1908 -43.5622 9.78742 -39.1932 -68.0534 -11.8286 -36.3176 
-43.5821 11.6929 -39.1898 -43.4095 11.8307 -38.4471 -43.5781 12.1269 -39.1885 
-43.5122 12.3537 -39.1367 -43.5789 12.3211 -39.1881 -43.574 11.4189 -39.1899 
[...]
POINT_DATA 13638
SCALARS scalars float
LOOKUP_TABLE default
-1000 -1000 -1000 -1000 -1000 -1000 -1000 -1000 -1000 
-1000 -1000 -1000 -1000 -1000 -1000 -1000 -1000 -1000 
-1000 -1000 -1000 -1000 -1000 -1000 -1000 -1000 -1000 
-1000 -1000 -1000 -1000 -1000 -1000 -1000 -1000 -1000 
-1000 -1000 -1000 -1000 -1000 -1000 -1000 -1000 -1000 
-1000 -1000 -1000 -1000 -1000 -1000 -1000 -1000 -1000 
-1000 -1000 -1000 -1000 -1000 -1000 -1000 -1000 -1000 
-1000 -1000 -1000 -1000 -1000 -1000 -1000 -1000 -1000 
-1000 -1000 -1000 -1000 -1000 -1000 -1000 -1000 -1000 
-1000 -1000 -1000 -1000 -1000 -1000 -1000 -1000 -1000 
-1000 -1000 -1000 -1000 -1000 -1000 -1000 -1000 -1000 
-1000 -1000 -1000 -1000 -1000 -1000 -1000 -1000 -1000 
-1000 -1000 -1000 -1000 -1000 -1000 -1000 -1000 -1000 
-1000 -1000 -1000 -1000 -1000 -1000 -1000 -1000 -1000 
-1000 -1000 -1000 -1000 -1000 -1000 -1000 -1000 -1000 
-1000 -1000 -1000 -1000 -1000 -1000 -1000 -1000 -1000 
-1000 -1000 -1000 -1000 -1000 -1000 -1000 -1000 -1000 
-1000 -1000 -1000 -1000 -1000 -1000 -1000 -1000 -1000 
-1000 -1000 -1000 -1000 -1000 -1000 -1000 -1000 -1000 
-1000 -1000 -1000 -1000 -1000 -1000 -1000 -1000 -1000 
-1000 -1000 -1000 -1000 -1000 -1000 -1000 -1000 -1000 
-1000 -1000 -1000 -1000 -1000 -1000 -1000 -1000 -1000 
-1000 -1000 -1000 -1000 -1000 -1000 -1000 -1000 -1000 
-1000 -1000 -1000 -1000 -1000 -1000 -1000 -1000 -1000 
-1000 -1000 -1000 -1000 -1000 -1000 -1000 -1000 -1000 
-1000 -1000 -1000 -1000 -1000 -1000 -1000 -1000 -1000 
-1000 -1000 -1000 -1000 -1000 -1000 -1000 -1000 -1000 
-1000 -1000 -1000 -1000 -1000 -1000 -1000 -1000 -1000 
-1000 -1000 -1000 -1000 -1000 -1000 -1000 -1000 -1000 
-1000 -1000 -1000 -1000 -1000 -1000 -1000 -1000 -1000 
-1000 -1000 -1000 -1000 -1000 -1000 -1000 -1000 -1000 
-1000 -1000 -1000 -1000 -1000 -1000 -1000 -1000 -1000 
-1000 -1000 -1000 -1000 -1000 -1000 -1000 -1000 -1000 
-1000 -1000 -1000 -1000 -1000 -1000 -1000 -1000 -1000 
-1000 -1000 -1000 -1000 -1000 -1000 -1000 -1000 -1000 
-1000 -1000 -1000 -1000 -1000 -1000 -1000 -1000 -1000 
-1000 -1000 -1000 -1000 -1000 -1000 -1000 -1000 -1000 
-1000 -1000 -1000 -1000 -1000 -1000 -1000 -1000 -1000 
-1000 -1000 -1000 -1000 -1000 -1000 -1000 -1000 -1000 
-1000 -1000 -1000 -1000 -1000 -1000 -1000 -1000 -1000 
-1000 -1000 -1000 -1000 -1000 -1000 -1000 -1000 -1000 
-1000 -1000 -1000 -1000 -1000 -1000 -1000 -1000 -1000 
-1000 -1000 -1000 -1000 -1000 -1000 -1000 -1000 -1000 
-1000 -1000 -1000 -1000 -1000 -1000 -1000 -1000 -1000 
-1000 -1000 -1000 -1000 -1000 -1000 -1000 -1000 -1000 
-1000 -1000 -1000 -1000 -1000 -1000 -1000 -1000 -1000 
-1000 -1000 -1000 -1000 -1000 -1000 -1000 -1000 -1000 
-1000 -1000 -1000 -1000 -1000 -1000 -1000 -1000 -1000 
-1000 -1000 -1000 -1000 -1000 -1000 -1000 -1000 -1000 
-1000 -1000 -1000 -1000 -1000 -1000 -1000 -1000 -1000 
-1000 -1000 -1000 -1000 -1000 -1000 -1000 -1000 -1000 
-1000 -1000 -1000 -1000 -1000 -1000 -1000 -1000 -1000 
-1000 -1000 -1000 -1000 -1000 -1000 -1000 -1000 -1000 
-1000 -1000 -1000 -1000 -1000 -1000 -1000 -1000 -1000 
-1000 -1000 -1000 -1000 -1000 -1000 -1000 -1000 -1000 
-1000 -1000 -1000 -1000 -1000 -1000 -1000 -1000 -1000 
-1000 -1000 -1000 -1000 -1000 -1000 -1000 -1000 -1000 
-1000 -1000 -1000 -1000 -1000 -1000 -1000 -1000 -1000 
-1000 -1000 -1000 -1000 -1000 -1000 -1000 -1000 -1000 
-1000 -1000 -1000 -1000 -1000 -1000 -1000 -1000 -1000 
-1000 -1000 -1000 -1000 -1000 -1000 -1000 -1000 -1000 
-1000 -1000 -1000 -1000 -1000 -1000 -1000 -1000 -1000 
-1000 -1000 -1000 -1000 -1000 -1000 -1000 -1000 -1000 
-1000 -1000 -1000 -1000 -1000 -1000 -1000 -1000 -1000 
-1000 -1000 -1000 -1000 -1000 -1000 -1000 -1000 -1000 
-1000 -1000 -1000 -1000 -1000 -1000 -1000 -1000 -1000 
-1000 -1000 -1000 -1000 -1000 -1000 -1000 -1000 -1000 
-1000 -1000 -1000 -1000 -1000 -1000 -1000 -1000 -1000 
-1000 -1000 -1000 -1000 -1000 -1000 -1000 -1000 -1000 
-1000 -1000 -1000 -1000 -1000 -1000 -1000 -1000 -1000 
-1000 -1000 -1000 -1000 -1000 -1000 -1000 -1000 -1000 
-1000 -1000 -1000 -1000 -1000 -1000 -1000 -1000 -1000 
-1000 -1000 -1000 -1000 -1000 -1000 -1000 -1000 -1000 
-1000 -1000 -1000 -1000 -1000 -1000 -1000 -1000 -1000 
-1000 -1000 -1000 -1000 -1000 -1000 -1000 -1000 -1000 
-1000 -1000 -1000 -1000 -1000 -1000 -1000 -1000 -1000 
-1000 -1000 -1000 -1000 -1000 -1000 -1000 -1000 -1000 
-1000 -1000 -1000 -1000 -1000 -1000 -1000 -1000 -1000 
-1000 -1000 -1000 -1000 -1000 -1000 -1000 -1000 -1000 
-1000 -1000 -1000 -1000 -1000 -1000 -1000 -1000 -1000 
-1000 -1000 -1000 -1000 -1000 -1000 -1000 -1000 -1000 
-1000 -1000 -1000 -1000 -1000 -1000 -1000 -1000 -1000 
-1000 -1000 -1000 -1000 -1000 -1000 -1000 -1000 -1000 
-1000 -1000 -1000 -1000 -1000 -1000 -1000 -1000 -1000 
-1000 -1000 -1000 -1000 -1000 -1000 -1000 -1000 -1000 
-1000 -1000 -1000 -1000 -1000 -1000 -1000 -1000 -1000 
-1000 -1000 -1000 -1000 -1000 -1000 -1000 -1000 -1000 
-1000 -1000 -1000 -1000 -1000 -1000 -1000 -1000 -1000 
-1000 -1000 -1000 -1000 -1000 -1000 -1000 -1000 -1000 
-1000 -1000 -1000 -1000 -1000 -1000 -1000 -1000 -1000 
-1000 -1000 -1000 -1000 -1000 -1000 -1000 -1000 -1000 
-1000 -1000 -1000 -1000 -1000 -1000 -1000 -1000 -1000 
-1000 -1000 -1000 -1000 -1000 -1000 -1000 -1000 -1000 
-1000 -1000 -1000 -1000 -1000 -1000 -1000 -1000 -1000 
-1000 -1000 -1000 -1000 -1000 -1000 -1000 -1000 -1000 
-1000 -1000 -1000 -1000 -1000 -1000 -1000 -1000 -1000 
-1000 -1000 -1000 -1000 -1000 -1000 -1000 -1000 -1000 
-1000 -1000 -1000 -1000 -1000 -1000 -1000 -1000 -1000 
-1000 -1000 -1000 -1000 -1000 -1000 -1000 -1000 -1000 
-1000 -1000 -1000 -1000 -1000 -1000 -1000 -1000 -1000 
-1000 -1000 -1000 -1000 -1000 -1000 -1000 -1000 -1000 
-1000 -1000 -1000 -1000 -1000 -1000 -1000 -1000 -1000 
-1000 -1000 -1000 -1000 -1000 -1000 -1000 -1000 -1000 
-1000 -1000 -1000 -1000 -1000 -1000 -1000 -1000 -1000 
-1000 -1000 -1000 -1000 -1000 -1000 -1000 -1000 -1000 
-1000 -1000 -1000 -1000 -1000 -1000 -1000 -1000 -1000 
-1000 -1000 -1000 -1000 -1000 -1000 -1000 -1000 -1000 
-1000 -1000 -1000 -1000 -1000 -1000 -1000 -1000 -1000 
-1000 -1000 -1000 -1000 -1000 -1000 -1000 -1000 -1000 
-1000 -1000 -1000 -1000 -1000 -1000 -1000 -1000 -1000 
-1000 -1000 -1000 -1000 -1000 -1000 -1000 -1000 -1000 
-1000 -1000 -1000 -1000 -1000 -1000 -1000 -1000 -1000 
-1000 -1000 -1000 -1000 -1000 -1000 -1000 -1000 -1000 
-1000 -1000 -1000 -1000 -1000 -1000 -1000 -1000 -1000 
-1000 -1000 -1000 -1000 -1000 -1000 -1000 -1000 -1000 
-1000 -1000 -1000 -1000 -1000 -1000 -1000 -1000 -1000 
-1000 -1000 -1000 -1000 -1000 -1000 -1000 -1000 -1000 
-1000 -1000 -1000 -1000 -1000 -1000 -1000 -1000 -1000 
-1000 -1000 -1000 -1000 -1000 -1000 -1000 -1000 -1000 
-1000 -1000 -1000 -1000 -1000 -1000 -1000 -1000 -1000 
-1000 -1000 -1000 -1000 -1000 -1000 -1000 -1000 -1000 
-1000 -1000 -1000 -1000 -1000 -1000 -1000 -1000 -1000 
-1000 -1000 -1000 -1000 -1000 -1000 -1000 -1000 -1000 
-1000 -1000 -1000 -1000 -1000 -1000 -1000 -1000 -1000 
-1000 -1000 -1000 -1000 -1000 -1000 -1000 -1000 -1000 
-1000 -1000 -1000 -1000 -1000 -1000 -1000 -1000 -1000 
-1000 -1000 -1000 -1000 -1000 -1000 -1000 -1000 -1000 
-1000 -1000 -1000 -1000 -1000 -1000 -1000 -1000 -1000 
-1000 -1000 -1000 -1000 -1000 -1000 -1000 -1000 -1000 
-1000 -1000 -1000 -1000 -1000 -1000 -1000 -1000 -1000 
-1000 -1000 -1000 -1000 -1000 -1000 -1000 -1000 -1000 
-1000 -1000 -1000 -1000 -1000 -1000 -1000 -1000 -1000 
-1000 -1000 -1000 -1000 -1000 -1000 -1000 -1000 -1000 
-1000 -1000 -1000 -1000 -1000 -1000 -1000 -1000 -1000 
-1000 -1000 -1000 -1000 -1000 -1000 -1000 -1000 -1000 
-1000 -1000 -1000 -1000 -1000 -1000 -1000 -1000 -1000 
-1000 -1000 -1000 -1000 -1000 -1000 -1000 -1000 -1000 
-1000 -1000 -1000 -1000 -1000 -1000 -1000 -1000 -1000 
-1000 -1000 -1000 -1000 -1000 -1000 -1000 -1000 -1000 
-1000 -1000 -1000 -1000 -1000 -1000 -1000 -1000 -1000 
-1000 -1000 -1000 -1000 -1000 -1000 -1000 -1000 -1000 
-1000 -1000 -1000 -1000 -1000 -1000 -1000 -1000 -1000 
-1000 -1000 -1000 -1000 -1000 -1000 -1000 -1000 -1000 
-1000 -1000 -1000 -1000 -1000 -1000 -1000 -1000 -1000 
-1000 -1000 -1000 -1000 -1000 -1000 -1000 -1000 -1000 
-1000 -1000 -1000 -1000 -1000 -1000 -1000 -1000 -1000 
-1000 -1000 -1000 -1000 -1000 -1000 -1000 -1000 -1000 
-1000 -1000 -1000 -1000 -1000 -1000 -1000 -1000 -1000 
-1000 -1000 -1000 -1000 -1000 -1000 -1000 -1000 -1000 
-1000 -1000 -1000 -1000 -1000 -1000 -1000 -1000 -1000 
-1000 -1000 -1000 -1000 -1000 -1000 -1000 -1000 -1000 
-1000 -1000 -1000 -1000 -1000 -1000 -1000 -1000 -1000 
-1000 -1000 -1000 -1000 -1000 -1000 -1000 -1000 -1000 
-1000 -1000 -1000 -1000 -1000 -1000 -1000 -1000 -1000 
-1000 -1000 -1000 -1000 -1000 -1000 -1000 -1000 -1000 
-1000 -1000 -1000 -1000 -1000 -1000 -1000 -1000 -1000 
-1000 -1000 -1000 -1000 -1000 -1000 -1000 -1000 -1000 
-1000 -1000 -1000 -1000 -1000 -1000 -1000 -1000 -1000 
-1000 -1000 -1000 -1000 -1000 -1000 -1000 -1000 -1000 
-1000 -1000 -1000 -1000 -1000 -1000 -1000 -1000 -1000 
-1000 -1000 -1000 -1000 -1000 -1000 -1000 -1000 -1000 
-1000 -1000 -1000 -1000 -1000 -1000 -1000 -1000 -1000 
-1000 -1000 -1000 -1000 -1000 -1000 -1000 -1000 -1000 
-1000 -1000 -1000 -1000 -1000 -1000 -1000 -1000 -1000 
-1000 -1000 -1000 -1000 -1000 -1000 -1000 -1000 -1000 
-1000 -1000 -1000 -1000 -1000 -1000 -1000 -1000 -1000 
-1000 -1000 -1000 -1000 -1000 -1000 -1000 -1000 -1000 
-1000 -1000 -1000 -1000 -1000 -1000 -1000 -1000 -1000 
-1000 -1000 -1000 -1000 -1000 -1000 -1000 -1000 -1000 
-1000 -1000 -1000 -1000 -1000 -1000 -1000 -1000 -1000 
-1000 -1000 -1000 -1000 -1000 -1000 -1000 -1000 -1000 
-1000 -1000 -1000 -1000 -1000 -1000 -1000 -1000 -1000 
-1000 -1000 -1000 -1000 -1000 -1000 -1000 -1000 -1000 
-1000 -1000 -1000 -1000 -1000 -1000 -1000 -1000 -1000 
-1000 -1000 -1000 -1000 -1000 -1000 -1000 -1000 -1000 
-1000 -1000 -1000 -1000 -1000 -1000 -1000 -1000 -1000 
-1000 -1000 -1000 -1000 -1000 -1000 -1000 -1000 -1000 
-1000 -1000 -1000 -1000 -1000 -1000 -1000 -1000 -1000 
-1000 -1000 -1000 -1000 -1000 -1000 -1000 -1000 -1000 
-1000 -1000 -1000 -1000 -1000 -1000 -1000 -1000 -1000 
-1000 -1000 -1000 -1000 -1000 -1000 -1000 -1000 -1000 
-1000 -1000 -1000 -1000 -1000 -1000 -1000 -1000 -1000 
-1000 -1000 -1000 -1000 -1000 -1000 -1000 -1000 -1000 
-1000 -1000 -1000 -1000 -1000 -1000 -1000 -1000 -1000 
-1000 -1000 -1000 -1000 -1000 -1000 -1000 -1000 -1000 
-1000 -1000 -1000 -1000 -1000 -1000 -1000 -1000 -1000 
-1000 -1000 -1000 -1000 -1000 -1000 -1000 -1000 -1000 
-1000 -1000 -1000 -1000 -1000 -1000 -1000 -1000 -1000 
-1000 -1000 -1000 -1000 -1000 -1000 -1000 -1000 -1000 
-1000 -1000 -1000 -1000 -1000 -1000 -1000 -1000 -1000 
-1000 -1000 -1000 -1000 -1000 -1000 -1000 -1000 -1000 
-1000 -1000 -1000 -1000 -1000 -1000 -1000 -1000 -1000 
-1000 -1000 -1000 -1000 -1000 -1000 -1000 -1000 -1000 
-1000 -1000 -1000 -1000 -1000 -1000 -1000 -1000 -1000 
-1000 -1000 -1000 -1000 -1000 -1000 -1000 -1000 -1000 
-1000 -1000 -1000 -1000 -1000 -1000 -1000 -1000 -1000 
-1000 -1000 -1000 -1000 -1000 -1000 -1000 -1000 -1000 
-1000 -1000 -1000 -1000 -1000 -1000 -1000 -1000 -1000 
-1000 -1000 -1000 -1000 -1000 -1000 -1000 -1000 -1000 
-1000 -1000 -1000 -1000 -1000 -1000 -1000 -1000 -1000 
-1000 -1000 -1000 -1000 -1000 -1000 -1000 -1000 -1000 
-1000 -1000 -1000 -1000 -1000 -1000 -1000 -1000 -1000 
-1000 -1000 -1000 -1000 -1000 -1000 -1000 -1000 -1000 
-1000 -1000 -1000 -1000 -1000 -1000 -1000 -1000 -1000 
-1000 -1000 -1000 -1000 -1000 -1000 -1000 -1000 -1000 
-1000 -1000 -1000 -1000 -1000 -1000 -1000 -1000 -1000 
-1000 -1000 -1000 -1000 -1000 -1000 -1000 -1000 -1000 
-1000 -1000 -1000 -1000 -1000 -1000 -1000 -1000 -1000 
-1000 -1000 -1000 -1000 -1000 -1000 -1000 -1000 -1000 
-1000 -1000 -1000 -1000 -1000 -1000 -1000 -1000 -1000 
-1000 -1000 -1000 -1000 -1000 -1000 -1000 -1000 -1000 
-1000 -1000 -1000 -1000 -1000 -1000 -1000 -1000 -1000 
-1000 -1000 -1000 -1000 -1000 -1000 -1000 -1000 -1000 
-1000 -1000 -1000 -1000 -1000 -1000 -1000 -1000 -1000 
-1000 -1000 -1000 -1000 -1000 -1000 -1000 -1000 -1000 
-1000 -1000 -1000 -1000 -1000 -1000 -1000 -1000 -1000 
-1000 -1000 -1000 -1000 -1000 -1000 -1000 -1000 -1000 
-1000 -1000 -1000 -1000 -1000 -1000 -1000 -1000 -1000 
-1000 -1000 -1000 -1000 -1000 -1000 -1000 -1000 -1000 
-1000 -1000 -1000 -1000 -1000 -1000 -1000 -1000 -1000 
-1000 -1000 -1000 -1000 -1000 -1000 -1000 -1000 -1000 
-1000 -1000 -1000 -1000 -1000 -1000 -1000 -1000 -1000 
-1000 -1000 -1000 -1000 -1000 -1000 -1000 -1000 -1000 
-1000 -1000 -1000 -1000 -1000 -1000 -1000 -1000 -1000 
-1000 -1000 -1000 -1000 -1000 -1000 -1000 -1000 -1000 
-1000 -1000 -1000 -1000 -1000 -1000 -1000 -1000 -1000 
-1000 -1000 -1000 -1000 -1000 -1000 -1000 -1000 -1000 
-1000 -1000 -1000 -1000 -1000 -1000 -1000 -1000 -1000 
-1000 -1000 -1000 -1000 -1000 -1000 -1000 -1000 -1000 
-1000 -1000 -1000 -1000 -1000 -1000 -1000 -1000 -1000 
-1000 -1000 -1000 -1000 -1000 -1000 -1000 -1000 -1000 
-1000 -1000 -1000 -1000 -1000 -1000 -1000 -1000 -1000 
-1000 -1000 -1000 -1000 -1000 -1000 -1000 -1000 -1000 
-1000 -1000 -1000 -1000 -1000 -1000 -1000 -1000 -1000 
-1000 -1000 -1000 -1000 -1000 -1000 -1000 -1000 -1000 
-1000 -1000 -1000 -1000 -1000 -1000 -1000 -1000 -1000 
-1000 -1000 -1000 -1000 -1000 -1000 -1000 -1000 -1000 
-1000 -1000 -1000 -1000 -1000 -1000 -1000 -1000 -1000 
-1000 -1000 -1000 -1000 -1000 -1000 -1000 -1000 -1000 
-1000 -1000 -1000 -1000 -1000 -1000 -1000 -1000 -1000 
-1000 -1000 -1000 -1000 -1000 -1000 -1000 -1000 -1000 
-1000 -1000 -1000 -1000 -1000 -1000 -1000 -1000 -1000 
-1000 -1000 -1000 -1000 -1000 -1000 -1000 -1000 -1000 
-1000 -1000 -1000 -1000 -1000 -1000 -1000 -1000 -1000 
-1000 -1000 -1000 -1000 -1000 -1000 -1000 -1000 -1000 
-1000 -1000 -1000 -1000 -1000 -1000 -1000 -1000 -1000 
-1000 -1000 -1000 -1000 -1000 -1000 -1000 -1000 -1000 
-1000 -1000 -1000 -1000 -1000 -1000 -1000 -1000 -1000 
-1000 -1000 -1000 -1000 -1000 -1000 -1000 -1000 -1000 
-1000 -1000 -1000 -1000 -1000 -1000 -1000 -1000 -1000 
-1000 -1000 -1000 -1000 -1000 -1000 -1000 -1000 -1000 
-1000 -1000 -1000 -1000 -1000 -1000 -1000 -1000 -1000 
-1000 -1000 -1000 -1000 -1000 -1000 -1000 -1000 -1000 
-1000 -1000 -1000 -1000 -1000 -1000 -1000 -1000 -1000 
-1000 -1000 -1000 -1000 -1000 -1000 -1000 -1000 -1000 
-1000 -1000 -1000 -1000 -1000 -1000 -1000 -1000 -1000 
-1000 -1000 -1000 -1000 -1000 -1000 -1000 -1000 -1000 
-1000 -1000 -1000 -1000 -1000 -1000 -1000 -1000 -1000 
-1000 -1000 -1000 -1000 -1000 -1000 -1000 -1000 -1000 
-1000 -1000 -1000 -1000 -1000 -1000 -1000 -1000 -1000 
-1000 -1000 -1000 -1000 -1000 -1000 -1000 -1000 -1000 
-1000 -1000 -1000 -1000 -1000 -1000 -1000 -1000 -1000 
-1000 -1000 -1000 -1000 -1000 -1000 -1000 -1000 -1000 
-1000 -1000 -1000 -1000 -1000 -1000 -1000 -1000 -1000 
-1000 -1000 -1000 -1000 -1000 -1000 -1000 -1000 -1000 
-1000 -1000 -1000 -1000 -1000 -1000 -1000 -1000 -1000 
-1000 -1000 -1000 -1000 -1000 -1000 -1000 -1000 -1000 
-1000 -1000 -1000 -1000 -1000 -1000 -1000 -1000 -1000 
-1000 -1000 -1000 -1000 -1000 -1000 -1000 -1000 -1000 
-1000 -1000 -1000 -1000 -1000 -1000 -1000 -1000 -1000 
-1000 -1000 -1000 -1000 -1000 -1000 -1000 -1000 -1000 
-1000 -1000 -1000 -1000 -1000 -1000 -1000 -1000 -1000 
-1000 -1000 -1000 -1000 -1000 -1000 -1000 -1000 -1000 
-1000 -1000 -1000 -1000 -1000 -1000 -1000 -1000 -1000 
-1000 -1000 -1000 -1000 -1000 -1000 -1000 -1000 -1000 
-1000 -1000 -1000 -1000 -1000 -1000 -1000 -1000 -1000 
-1000 -1000 -1000 -1000 -1000 -1000 -1000 -1000 -1000 
-1000 -1000 -1000 -1000 -1000 -1000 -1000 -1000 -1000 
-1000 -1000 -1000 -1000 -1000 -1000 -1000 -1000 -1000 
-1000 -1000 -1000 -1000 -1000 -1000 -1000 -1000 -1000 
-1000 -1000 -1000 -1000 -1000 -1000 -1000 -1000 -1000 
-1000 -1000 -1000 -1000 -1000 -1000 -1000 -1000 -1000 
-1000 -1000 -1000 -1000 -1000 -1000 -1000 -1000 -1000 
-1000 -1000 -1000 -1000 -1000 -1000 -1000 -1000 -1000 
-1000 -1000 -1000 -1000 -1000 -1000 -1000 -1000 -1000 
-1000 -1000 -1000 -1000 -1000 -1000 -1000 -1000 -1000 
-1000 -1000 -1000 -1000 -1000 -1000 -1000 -1000 -1000 
-1000 -1000 -1000 -1000 -1000 -1000 -1000 -1000 -1000 
-1000 -1000 -1000 -1000 -1000 -1000 -1000 -1000 -1000 
-1000 -1000 -1000 -1000 -1000 -1000 -1000 -1000 -1000 
-1000 -1000 -1000 -1000 -1000 -1000 -1000 -1000 -1000 
-1000 -1000 -1000 -1000 -1000 -1000 -1000 -1000 -1000 
-1000 -1000 -1000 -1000 -1000 -1000 -1000 -1000 -1000 
-1000 -1000 -1000 -1000 -1000 -1000 -1000 -1000 -1000 
-1000 -1000 -1000 -1000 -1000 -1000 -1000 -1000 -1000 
-1000 -1000 -1000 -1000 -1000 -1000 -1000 -1000 -1000 
-1000 -1000 -1000 -1000 -1000 -1000 -1000 -1000 -1000 
-1000 -1000 -1000 -1000 -1000 -1000 -1000 -1000 -1000 
-1000 -1000 -1000 -1000 -1000 -1000 -1000 -1000 -1000 
-1000 -1000 -1000 -1000 -1000 -1000 -1000 -1000 -1000 
-1000 -1000 -1000 -1000 -1000 -1000 -1000 -1000 -1000 
-1000 -1000 -1000 -1000 -1000 -1000 -1000 -1000 -1000 
-1000 -1000 -1000 -1000 -1000 -1000 -1000 -1000 -1000 
-1000 -1000 -1000 -1000 -1000 -1000 -1000 -1000 -1000 
-1000 -1000 -1000 -1000 -1000 -1000 -1000 -1000 -1000 
-1000 -1000 -1000 -1000 -1000 -1000 -1000 -1000 -1000 
-1000 -1000 -1000 -1000 -1000 -1000 -1000 -1000 -1000 
-1000 -1000 -1000 -1000 -1000 -1000 -1000 -1000 -1000 
-1000 -1000 -1000 -1000 -1000 -1000 -1000 -1000 -1000 
-1000 -1000 -1000 -1000 -1000 -1000 -1000 -1000 -1000 
-1000 -1000 -1000 -1000 -1000 -1000 -1000 -1000 -1000 
-1000 -1000 -1000 -1000 -1000 -1000 -1000 -1000 -1000 
-1000 -1000 -1000 -1000 -1000 -1000 -1000 -1000 -1000 
-1000 -1000 -1000 -1000 -1000 -1000 -1000 -1000 -1000 
-1000 -1000 -1000 -1000 -1000 -1000 -1000 -1000 -1000 
-1000 -1000 -1000 -1000 -1000 -1000 -1000 -1000 -1000 
-1000 -1000 -1000 -1000 -1000 -1000 -1000 -1000 -1000 
-1000 -1000 -1000 -1000 -1000 -1000 -1000 -1000 -1000 
-1000 -1000 -1000 -1000 -1000 -1000 -1000 -1000 -1000 
-1000 -1000 -1000 -1000 -1000 -1000 -1000 -1000 -1000 
-1000 -1000 -1000 -1000 -1000 -1000 -1000 -1000 -1000 
-1000 -1000 -1000 -1000 -1000 -1000 -1000 -1000 -1000 
-1000 -1000 -1000 -1000 -1000 -1000 -1000 -1000 -1000 
-1000 -1000 -1000 -1000 -1000 -1000 -1000 -1000 -1000 
-1000 -1000 -1000 -1000 -1000 -1000 -1000 -1000 -1000 
-1000 -1000 -1000 -1000 -1000 -1000 -1000 -1000 -1000 
-1000 -1000 -1000 -1000 -1000 -1000 -1000 -1000 -1000 
-1000 -1000 -1000 -1000 -1000 -1000 -1000 -1000 -1000 
-1000 -1000 -1000 -1000 -1000 -1000 -1000 -1000 -1000 
-1000 -1000 -1000 -1000 -1000 -1000 -1000 -1000 -1000 
-1000 -1000 -1000 -1000 -1000 -1000 -1000 -1000 -1000 
-1000 -1000 -1000 -1000 -1000 -1000 -1000 -1000 -1000 
-1000 -1000 -1000 -1000 -1000 -1000 -1000 -1000 -1000 
-1000 -1000 -1000 -1000 -1000 -1000 -1000 -1000 -1000 
-1000 -1000 -1000 -1000 -1000 -1000 -1000 -1000 -1000 
-1000 -1000 -1000 -1000 -1000 -1000 -1000 -1000 -1000 
-1000 -1000 -1000 -1000 -1000 -1000 -1000 -1000 -1000 
-1000 -1000 -1000 -1000 -1000 -1000 -1000 -1000 -1000 
-1000 -1000 -1000 -1000 -1000 -1000 -1000 -1000 -1000 
-1000 -1000 -1000 -1000 -1000 -1000 -1000 -1000 -1000 
-1000 -1000 -1000 -1000 -1000 -1000 -1000 -1000 -1000 
-1000 -1000 -1000 -1000 -1000 -1000 -1000 -1000 -1000 
-1000 -1000 -1000 -1000 -1000 -1000 -1000 -1000 -1000 
-1000 -1000 -1000 -1000 -1000 -1000 -1000 -1000 -1000 
-1000 -1000 -1000 -1000 -1000 -1000 -1000 -1000 -1000 
-1000 -1000 -1000 -1000 -1000 -1000 -1000 -1000 -1000 
-1000 -1000 -1000 -1000 -1000 -1000 -1000 -1000 -1000 
-1000 -1000 -1000 -1000 -1000 -1000 -1000 -1000 -1000 
-1000 -1000 -1000 -1000 -1000 -1000 -1000 -1000 -1000 
-1000 -1000 -1000 -1000 -1000 -1000 -1000 -1000 -1000 
-1000 -1000 -1000 -1000 -1000 -1000 -1000 -1000 -1000 
-1000 -1000 -1000 -1000 -1000 -1000 -1000 -1000 -1000 
-1000 -1000 -1000 -1000 -1000 -1000 -1000 -1000 -1000 
-1000 -1000 -1000 -1000 -1000 -1000 -1000 -1000 -1000 
-1000 -1000 -1000 -1000 -1000 -1000 -1000 -1000 -1000 
-1000 -1000 -1000 -1000 -1000 -1000 -1000 -1000 -1000 