# vtk DataFile Version 3.0
vtk output
ASCII
DATASET POLYDATA
POINTS 13638 float
-88.7264 0.0148482 -103.091 -88.9162 0.172024 -103.089 -88.8993 0.15053 -103.097 
-88.9193 0.175249 -103.089 -89.671 0.884021 -103.084 -89.6525 0.8532 -102.966 
-90.0977 1.39741 -103.081 -91.0005 2.82907 -103.073 -91.0587 3.01095 -103.073 
-91.0219 2.86516 -102.926 -90.6554 2.20444 -103.077 -74.2588 -1.97895 -103.152 
-74.5187 -2.09248 -103.151 -74.5577 -2.16883 -103.002 -75.123 -2.22394 -103.149 
-75.3156 -2.25883 -103.149 -76.1441 -2.37838 -103.146 -76.1939 -2.5039 -102.792 
-76.6143 -2.48468 -103.145 -76.8288 -2.61284 -102.93 -76.8438 -2.5428 -103.144 
-77.5876 -2.77335 -103.142 -77.8548 -2.83272 -103.141 -77.752 -2.90412 -102.912 
-78.618 -3.00876 -103.138 -78.7516 -3.18113 -102.756 -79.4758 -3.10932 -103.136 
-79.7916 -3.13635 -103.134 -79.9731 -3.23111 -102.991 -79.6184 -3.42675 -102.353 
-79.147 -3.06937 -103.137 -80.4363 -3.41531 -102.54 -80.1023 -3.16454 -103.133 
-81.9924 -3.15288 -103.126 -82.0137 -3.1899 -103.078 -81.4062 -3.20322 -103.128 
-81.2455 -3.32475 -102.81 -80.97 -3.19065 -103.13 -80.469 -3.19101 -103.132 
-81.988 -3.39713 -102.188 -82.0701 -3.1445 -103.126 -82.3438 -3.07751 -103.125 
-82.8609 -2.95352 -103.122 -83.0044 -2.92183 -103.122 -83.2294 -3.13361 -102.159 
-84.2143 -2.56016 -103.116 -84.4598 -2.48362 -103.115 -84.7868 -2.47614 -102.885 
-84.1482 -2.8209 -102.425 -84.0852 -2.59192 -103.116 -84.7661 -2.69093 -102.063 
-84.9412 -2.3282 -103.112 -85.7426 -2.00182 -103.108 -85.7572 -1.99617 -103.108 
-85.7624 -1.99349 -103.108 -85.9178 -2.07644 -102.115 -86.9074 -1.35744 -103.102 
-86.9342 -1.33897 -103.102 -86.993 -1.34053 -102.149 -87.9607 -0.616479 -103.096 
-87.9728 -0.606525 -103.095 -88.0007 -0.550494 -102.165 -88.9522 0.247788 -102.152 
-89.8485 1.09091 -102.146 -90.3665 1.72523 -103.079 -90.4387 1.81158 -103.079 
-90.6482 2.04821 -102.059 -91.3658 3.97708 -102.667 -91.2309 3.07298 -101.842 
-91.3051 3.88716 -103.069 -91.4232 5.08288 -103.065 -91.3917 5.91866 -103.062 
-91.4962 5.06618 -102.406 -91.3688 4.45959 -103.067 -90.925 7.9977 -103.058 
-90.8778 8.18948 -103.057 -90.9114 7.99544 -102.882 -91.2044 7.01249 -103.06 
-91.184 7.0929 -103.059 -91.1883 7.00569 -102.986 -91.2786 6.61082 -103.061 
-70.2756 0.990217 -103.158 -70.6384 0.810405 -103.157 -70.682 0.725598 -103.049 
-70.7492 0.742163 -103.157 -71.7258 0.0388208 -103.155 -71.8513 -0.0874443 -103.155 
-71.8071 -0.0769876 -102.983 -71.5466 0.19319 -103.156 -72.4311 -0.631891 -103.155 
-72.8054 -0.983492 -103.154 -72.7169 -0.942711 -102.65 -73.1497 -1.28832 -103.154 
-73.7795 -1.7376 -103.153 -73.6304 -1.76007 -102.335 -74.9203 -2.39927 -102.58 
-74.5715 -2.38163 -102.162 -73.9561 -1.8504 -103.153 -75.3344 -2.69388 -101.997 
-75.2194 -2.24613 -103.149 -76.7302 -2.78996 -102.205 -76.1542 -2.87423 -101.84 
-75.2579 -2.25345 -103.149 -75.2384 -2.25046 -103.149 -76.9562 -3.08594 -101.546 
-77.5283 -3.12489 -101.842 -79.0667 -3.48442 -102.027 -78.4952 -3.40502 -101.858 
-79.4064 -3.72617 -101.301 -81.0295 -3.57104 -102.018 -80.3241 -3.69864 -101.625 
-81.1691 -3.7591 -101.21 -82.2725 -3.62676 -101.001 -83.25 -3.37802 -101.272 
-83.8516 -3.09691 -101.783 -83.9416 -3.21404 -101.085 -84.9254 -2.75614 -101.058 
-85.9948 -2.07798 -101.092 -87.0207 -1.3083 -101.133 -88.0206 -0.500188 -101.171 
-89.0026 0.332931 -101.184 -89.9481 1.2182 -101.13 -90.8283 2.2327 -100.912 
-91.5696 4.12318 -101.361 -91.3906 3.17946 -100.991 -91.4611 6.0159 -102.187 
-91.6093 5.20754 -101.579 -91.3839 6.04941 -103.062 -90.6809 8.90931 -102.761 
-90.963 8.06541 -101.931 -90.6902 8.915 -103.056 -91.2993 6.92574 -101.811 
-90.5538 9.77689 -103.054 -90.4617 10.5031 -103.052 -90.5846 9.72422 -102.364 
-90.6304 9.27083 -103.055 -90.3452 11.5594 -103.049 -90.3294 11.7142 -103.048 
-90.3202 11.5559 -102.911 -90.3812 11.1705 -103.05 -67.9646 2.54281 -103.162 
-68.063 2.46623 -103.162 -68.0413 2.45651 -103.019 -67.7165 2.76918 -103.162 
-68.6508 1.9893 -103.161 -69.0144 1.76554 -103.16 -68.9146 1.71496 -102.681 
-69.4261 1.47485 -103.16 -70.0443 1.11353 -103.158 -69.8173 0.999236 -102.333 
-71.3026 0.18301 -102.563 -70.7657 0.317178 -102.056 -70.0947 1.08165 -103.158 
-71.9332 -0.366284 -102.093 -71.6718 -0.411757 -101.543 -72.2935 -0.837485 -101.387 
-71.0919 0.534883 -103.156 -72.5384 -0.859343 -101.887 -73.4539 -1.7148 -101.315 
-74.4332 -2.48638 -101.071 -75.7622 -3.02159 -101.369 -75.3788 -3.02471 -100.969 
-76.1768 -3.30464 -100.801 -77.4865 -3.4049 -100.968 -76.8568 -3.35873 -100.866 
-77.5637 -3.75177 -100.012 -78.489 -3.73198 -100.613 -79.5403 -3.99155 -100.336 
-80.2807 -3.94574 -100.665 -81.0872 -4.01914 -100.037 -82.1349 -3.90533 -99.8327 
-83.0341 -3.59701 -100.451 -83.8198 -3.40771 -100.004 -84.9791 -2.80531 -100.005 
-86.0369 -2.10754 -100.029 -87.076 -1.33087 -100.102 -88.0932 -0.501845 -100.19 
-89.078 0.346651 -100.207 -90.0074 1.21509 -100.126 -90.7048 1.96188 -99.9082 
-91.5587 3.55173 -100.646 -91.3041 2.92248 -100.14 -91.5787 5.85061 -101.358 
-91.6804 5.05264 -100.766 -91.6365 4.01384 -100.119 -90.7819 8.82086 -101.962 
-90.9812 8.29656 -101.289 -91.2657 7.31274 -100.745 -91.5714 6.08293 -100.648 
-90.467 10.6846 -102.19 -90.6779 9.92304 -101.4 -90.4369 10.6894 -103.051 
-90.8312 9.05275 -101.308 -90.2414 12.3999 -102.584 -90.405 11.4757 -101.724 
-90.2638 12.3993 -103.047 -90.1032 13.9595 -103.042 -90.0733 14.0152 -103.014 
-90.1844 13.2218 -103.044 -90.1766 13.2337 -102.265 -90.0975 14.018 -103.042 
-90.2122 12.9015 -103.045 -89.9823 14.8201 -103.04 -89.9257 15.1074 -103.04 
-89.9529 14.8296 -102.743 -90.0942 14.042 -103.042 -66.1091 4.30215 -103.164 
-66.3331 4.0905 -103.163 -66.3121 4.1209 -102.822 -65.5538 4.81574 -103.164 
-66.7197 3.72027 -103.163 -67.1898 3.26615 -103.163 -67.1467 3.34143 -102.438 
-67.3321 3.1281 -103.163 -67.9812 2.55373 -102.052 -68.8205 1.77736 -101.683 
-69.6711 1.01932 -101.331 -70.5476 0.266562 -100.993 -71.4485 -0.494564 -100.659 
-72.9194 -1.42195 -100.903 -72.3867 -1.23668 -100.404 -73.5777 -2.01351 -100.396 
-73.2861 -2.00147 -99.8998 -73.9152 -2.43348 -99.6943 -74.3226 -2.57792 -100.038 
-75.2714 -3.20081 -99.8588 -76.7484 -3.62738 -100.137 -76.1296 -3.56665 -99.8993 
-76.9584 -3.89984 -99.3036 -77.788 -4.12055 -98.9137 -78.4873 -4.08016 -99.3447 
-80.1106 -4.13284 -99.8707 -79.3598 -4.14941 -99.5682 -80.228 -4.28999 -99.0797 
-81.3122 -4.23085 -98.8367 -82.2538 -4.03493 -99.0996 -82.8361 -3.80311 -99.6518 
-82.9656 -3.87209 -98.9544 -83.9553 -3.4621 -98.9194 -85.0288 -2.89016 -98.912 
-86.1389 -2.24892 -98.8711 -87.2955 -1.37975 -99.1627 -88.2963 -0.545805 -99.2763 
-89.2615 0.316629 -99.2902 -90.1697 1.20274 -99.2103 -91.002 2.22867 -99.0702 
-91.4809 3.2626 -99.3156 -91.6995 5.11455 -99.7704 -91.6859 4.11562 -98.9832 
-91.0668 8.2416 -100.416 -91.3042 7.2894 -99.4985 -91.557 6.22256 -99.6252 
-90.5856 10.6108 -101.369 -90.7493 10.1198 -100.737 -90.9016 9.25758 -100.313 
-90.2784 12.431 -101.485 -90.4424 11.6513 -100.612 -90.6348 10.8028 -100.685 
-90.1038 14.0443 -101.936 -90.2113 13.2671 -101.17 -89.7602 15.6705 -102.544 
-89.9541 14.8807 -101.669 -89.8062 15.646 -103.038 -89.4041 17.9153 -103.033 
-89.3821 18.0179 -102.984 -89.4083 17.2434 -103.035 -89.3796 17.2777 -102.311 
-89.4044 18.0135 -103.033 -89.5866 16.4802 -103.037 -89.4549 17.0209 -103.035 
-89.538 16.5197 -102.405 -89.6846 16.1006 -103.037 -89.4101 18.0484 -103.032 
-89.5535 18.8187 -103.03 -89.5321 18.8224 -102.998 -89.6811 19.4873 -103.027 
-89.7796 20.2301 -103.024 -89.6539 19.4958 -102.516 -89.559 18.8506 -103.029 
-89.8244 21.0534 -103.022 -89.7782 21.633 -103.02 -89.8299 21.0825 -102.555 
-89.786 20.2898 -103.024 -89.2387 23.6261 -103.016 -89.1245 23.9558 -103.015 
-89.2538 23.6116 -102.695 -89.5469 22.7484 -103.017 -89.5197 22.8231 -103.017 
-89.5304 22.7531 -102.938 -89.6034 22.5167 -103.018 -87.6973 26.9655 -103.011 
-87.6555 27.0518 -103.011 -87.6877 26.9675 -102.925 -87.8884 26.6203 -103.012 
-85.8954 30.2563 -103.008 -85.8872 30.2715 -103.008 -85.8878 30.2572 -102.989 
-85.9293 30.1997 -103.008 -63.62 6.50997 -103.166 -63.764 6.38675 -103.166 
-63.7543 6.39825 -102.951 -63.1869 6.88333 -103.167 -64.2425 5.9726 -103.166 
-64.6108 5.65379 -103.165 -64.5764 5.69381 -102.625 -64.8694 5.42644 -103.165 
-65.4725 4.89044 -103.164 -65.4111 4.96732 -102.27 -65.4956 4.86937 -103.164 
-66.2509 4.21803 -101.89 -67.0904 3.44816 -101.496 -67.9253 2.66548 -101.103 
-68.751 1.8832 -100.726 -69.5573 1.12666 -100.391 -70.3691 0.366565 -100.031 
-71.2478 -0.457535 -99.6537 -72.1639 -1.2935 -99.3456 -73.0629 -2.07365 -99.0505 
-74.4181 -2.85586 -99.1838 -73.9711 -2.73304 -98.8252 -74.6982 -3.2193 -98.4826 
-53.8943 15.7254 -103.175 -54.0299 15.4701 -103.175 -54.0107 15.4461 -102.975 
-54.1105 15.3408 -103.175 -54.3134 15.0432 -103.175 -75.1602 -3.3571 -98.807 
-76.2266 -3.87877 -98.705 -77.2213 -4.25645 -98.3124 -53.0105 18.1668 -103.171 
-53.0722 17.9424 -103.171 -53.0297 17.9342 -102.996 -53.1019 17.8287 -103.171 
-53.3813 16.8792 -103.173 -53.3846 16.8628 -103.102 -53.4 16.8167 -103.173 
-53.4551 16.6794 -103.174 -77.9852 -4.50781 -97.9133 -78.4389 -4.32458 -98.5367 
-78.7002 -4.56896 -97.9491 -52.2524 21.1057 -103.165 -52.3753 20.3816 -103.166 
-52.2152 20.5039 -102.6 -52.6194 19.5025 -103.168 -52.6464 19.4076 -103.168 
-52.6499 19.4112 -103.084 -52.6659 19.3595 -103.168 -52.7169 19.2014 -103.169 
-79.2376 -4.40562 -98.5389 -80.1665 -4.56865 -97.8943 -52.2257 21.8051 -103.162 
-52.1328 21.728 -102.751 -52.2439 22.1924 -103.161 -52.1747 22.5388 -102.763 
-52.2544 22.5742 -103.16 -52.2511 21.1199 -103.164 -81.1817 -4.47989 -97.7122 
-52.2623 23.3907 -103.157 -52.0746 23.5423 -102.24 -52.2547 23.9078 -103.156 
-52.2545 24.1676 -103.052 -52.2544 24.1393 -103.155 -52.2544 23.0642 -103.158 
-82.0598 -4.2008 -98.3097 -82.8243 -4.05446 -97.8421 -52.3103 24.8373 -103.153 
[...]
POINT_DATA 13638
SCALARS scalars float
LOOKUP_TABLE default
-1000 -1000 -1000 -1000 -1000 -1000 -1000 -1000 -1000 
-1000 -1000 -1000 -1000 -1000 -1000 -1000 -1000 -1000 
-1000 -1000 -1000 -1000 -1000 -1000 -1000 -1000 -1000 
-1000 -1000 -1000 -1000 -1000 -1000 -1000 -1000 -1000 
-1000 -1000 -1000 -1000 -1000 -1000 -1000 -1000 -1000 
-1000 -1000 -1000 -1000 -1000 -1000 -1000 -1000 -1000 
-1000 -1000 -1000 -1000 -1000 -1000 -1000 -1000 -1000 
-1000 -1000 -1000 -1000 -1000 -1000 -1000 -1000 -1000 
-1000 -1000 -1000 -1000 -1000 -1000 -1000 -1000 -1000 
-1000 -1000 -1000 -1000 -1000 -1000 -1000 -1000 -1000 
-1000 -1000 -1000 -1000 -1000 -1000 -1000 -1000 -1000 
-1000 -1000 -1000 -1000 -1000 -1000 -1000 -1000 -1000 
-1000 -1000 -1000 -1000 -1000 -1000 -1000 -1000 -1000 
-1000 -1000 -1000 -1000 -1000 -1000 -1000 -1000 -1000 
-1000 -1000 -1000 -1000 -1000 -1000 -1000 -1000 -1000 
-1000 -1000 -1000 -1000 -1000 -1000 -1000 -1000 -1000 
-1000 -1000 -1000 -1000 -1000 -1000 -1000 -1000 -1000 
-1000 -1000 -1000 -1000 -1000 -1000 -1000 -1000 -1000 
-1000 -1000 -1000 -1000 -1000 -1000 -1000 -1000 -1000 
-1000 -1000 -1000 -1000 -1000 -1000 -1000 -1000 -1000 
-1000 -1000 -1000 -1000 -1000 -1000 -1000 -1000 -1000 
-1000 -1000 -1000 -1000 -1000 -1000 -1000 -1000 -1000 
-1000 -1000 -1000 -1000 -1000 -1000 -1000 -1000 -1000 
-1000 -1000 -1000 -1000 -1000 -1000 -1000 -1000 -1000 
-1000 -1000 -1000 -1000 -1000 -1000 -1000 -1000 -1000 
-1000 -1000 -1000 -1000 -1000 -1000 -1000 -1000 -1000 
-1000 -1000 -1000 -1000 -1000 -1000 -1000 -1000 -1000 
-1000 -1000 -1000 -1000 -1000 -1000 -1000 -1000 -1000 
-1000 -1000 -1000 -1000 -1000 -1000 -1000 -1000 -1000 
-1000 -1000 -1000 -1000 -1000 -1000 -1000 -1000 -1000 
-1000 -1000 -1000 -1000 -1000 -1000 -1000 -1000 -1000 
-1000 -1000 -1000 -1000 -1000 -1000 -1000 -1000 -1000 
-1000 -1000 -1000 -1000 -1000 -1000 -1000 -1000 -1000 
-1000 -1000 -1000 -1000 -1000 -1000 -1000 -1000 -1000 
-1000 -1000 -1000 -1000 -1000 -1000 -1000 -1000 -1000 
-1000 -1000 -1000 -1000 -1000 -1000 -1000 -1000 -1000 
-1000 -1000 -1000 -1000 -1000 -1000 -1000 -1000 -1000 
-1000 -1000 -1000 -1000 -1000 -1000 -1000 -1000 -1000 
-1000 -1000 -1000 -1000 -1000 -1000 -1000 -1000 -1000 
-1000 -1000 -1000 -1000 -1000 -1000 -1000 -1000 -1000 
-1000 -1000 -1000 -1000 -1000 -1000 -1000 -1000 -1000 
-1000 -1000 -1000 -1000 -1000 -1000 -1000 -1000 -1000 
-1000 -1000 -1000 -1000 -1000 -1000 -1000 -1000 -1000 
-1000 -1000 -1000 -1000 -1000 -1000 -1000 -1000 -1000 
-1000 -1000 -1000 -1000 -1000 -1000 -1000 -1000 -1000 
-1000 -1000 -1000 -1000 -1000 -1000 -1000 -1000 -1000 
-1000 -1000 -1000 -1000 -1000 -1000 -1000 -1000 -1000 
-1000 -1000 -1000 -1000 -1000 -1000 -1000 -1000 -1000 
-1000 -1000 -1000 -1000 -1000 -1000 -1000 -1000 -1000 
-1000 -1000 -1000 -1000 -1000 -1000 -1000 -1000 -1000 
-1000 -1000 -1000 -1000 -1000 -1000 -1000 -1000 -1000 
-1000 -1000 -1000 -1000 -1000 -1000 -1000 -1000 -1000 
-1000 -1000 -1000 -1000 -1000 -1000 -1000 -1000 -1000 
-1000 -1000 -1000 -1000 -1000 -1000 -1000 -1000 -1000 
-1000 -1000 -1000 -1000 -1000 -1000 -1000 -1000 -1000 
-1000 -1000 -1000 -1000 -1000 -1000 -1000 -1000 -1000 
-1000 -1000 -1000 -1000 -1000 -1000 -1000 -1000 -1000 
-1000 -1000 -1000 -1000 -1000 -1000 -1000 -1000 -1000 
-1000 -1000 -1000 -1000 -1000 -1000 -1000 -1000 -1000 
-1000 -1000 -1000 -1000 -1000 -1000 -1000 -1000 -1000 
-1000 -1000 -1000 -1000 -1000 -1000 -1000 -1000 -1000 
-1000 -1000 -1000 -1000 -1000 -1000 -1000 -1000 -1000 
-1000 -1000 -1000 -1000 -1000 -1000 -1000 -1000 -1000 
-1000 -1000 -1000 -1000 -1000 -1000 -1000 -1000 -1000 
-1000 -1000 -1000 -1000 -1000 -1000 -1000 -1000 -1000 
-1000 -1000 -1000 -1000 -1000 -1000 -1000 -1000 -1000 
-1000 -1000 -1000 -1000 -1000 -1000 -1000 -1000 -1000 
-1000 -1000 -1000 -1000 -1000 -1000 -1000 -1000 -1000 
-1000 -1000 -1000 -1000 -1000 -1000 -1000 -1000 -1000 
-1000 -1000 -1000 -1000 -1000 -1000 -1000 -1000 -1000 
-1000 -1000 -1000 -1000 -1000 -1000 -1000 -1000 -1000 
-1000 -1000 -1000 -1000 -1000 -1000 -1000 -1000 -1000 
-1000 -1000 -1000 -1000 -1000 -1000 -1000 -1000 -1000 
-1000 -1000 -1000 -1000 -1000 -1000 -1000 -1000 -1000 
-1000 -1000 -1000 -1000 -1000 -1000 -1000 -1000 -1000 
-1000 -1000 -1000 -1000 -1000 -1000 -1000 -1000 -1000 
-1000 -1000 -1000 -1000 -1000 -1000 -1000 -1000 -1000 
-1000 -1000 -1000 -1000 -1000 -1000 -1000 -1000 -1000 
-1000 -1000 -1000 -1000 -1000 -1000 -1000 -1000 -1000 
-1000 -1000 -1000 -1000 -1000 -1000 -1000 -1000 -1000 
-1000 -1000 -1000 -1000 -1000 -1000 -1000 -1000 -1000 
-1000 -1000 -1000 -1000 -1000 -1000 -1000 -1000 -1000 
-1000 -1000 -1000 -1000 -1000 -1000 -1000 -1000 -1000 
-1000 -1000 -1000 -1000 -1000 -1000 -1000 -1000 -1000 
-1000 -1000 -1000 -1000 -1000 -1000 -1000 -1000 -1000 
-1000 -1000 -1000 -1000 -1000 -1000 -1000 -1000 -1000 
-1000 -1000 -1000 -1000 -1000 -1000 -1000 -1000 -1000 
-1000 -1000 -1000 -1000 -1000 -1000 -1000 -1000 -1000 
-1000 -1000 -1000 -1000 -1000 -1000 -1000 -1000 -1000 
-1000 -1000 -1000 -1000 -1000 -1000 -1000 -1000 -1000 
-1000 -1000 -1000 -1000 -1000 -1000 -1000 -1000 -1000 
-1000 -1000 -1000 -1000 -1000 -1000 -1000 -1000 -1000 
-1000 -1000 -1000 -1000 -1000 -1000 -1000 -1000 -1000 
-1000 -1000 -1000 -1000 -1000 -1000 -1000 -1000 -1000 
-1000 -1000 -1000 -1000 -1000 -1000 -1000 -1000 -1000 
-1000 -1000 -1000 -1000 -1000 -1000 -1000 -1000 -1000 
-1000 -1000 -1000 -1000 -1000 -1000 -1000 -1000 -1000 
-1000 -1000 -1000 -1000 -1000 -1000 -1000 -1000 -1000 
-1000 -1000 -1000 -1000 -1000 -1000 -1000 -1000 -1000 
-1000 -1000 -1000 -1000 -1000 -1000 -1000 -1000 -1000 
-1000 -1000 -1000 -1000 -1000 -1000 -1000 -1000 -1000 
-1000 -1000 -1000 -1000 -1000 -1000 -1000 -1000 -1000 
-1000 -1000 -1000 -1000 -1000 -1000 -1000 -1000 -1000 
-1000 -1000 -1000 -1000 -1000 -1000 -1000 -1000 -1000 
-1000 -1000 -1000 -1000 -1000 -1000 -1000 -1000 -1000 
-1000 -1000 -1000 -1000 -1000 -1000 -1000 -1000 -1000 
-1000 -1000 -1000 -1000 -1000 -1000 -1000 -1000 -1000 
-1000 -1000 -1000 -1000 -1000 -1000 -1000 -1000 -1000 
-1000 -1000 -1000 -1000 -1000 -1000 -1000 -1000 -1000 
-1000 -1000 -1000 -1000 -1000 -1000 -1000 -1000 -1000 
-1000 -1000 -1000 -1000 -1000 -1000 -1000 -1000 -1000 
-1000 -1000 -1000 -1000 -1000 -1000 -1000 -1000 -1000 
-1000 -1000 -1000 -1000 -1000 -1000 -1000 -1000 -1000 
-1000 -1000 -1000 -1000 -1000 -1000 -1000 -1000 -1000 
-1000 -1000 -1000 -1000 -1000 -1000 -1000 -1000 -1000 
-1000 -1000 -1000 -1000 -1000 -1000 -1000 -1000 -1000 
-1000 -1000 -1000 -1000 -1000 -1000 -1000 -1000 -1000 
-1000 -1000 -1000 -1000 -1000 -1000 -1000 -1000 -1000 
-1000 -1000 -1000 -1000 -1000 -1000 -1000 -1000 -1000 
-1000 -1000 -1000 -1000 -1000 -1000 -1000 -1000 -1000 
-1000 -1000 -1000 -1000 -1000 -1000 -1000 -1000 -1000 
-1000 -1000 -1000 -1000 -1000 -1000 -1000 -1000 -1000 
-1000 -1000 -1000 -1000 -1000 -1000 -1000 -1000 -1000 
-1000 -1000 -1000 -1000 -1000 -1000 -1000 -1000 -1000 
-1000 -1000 -1000 -1000 -1000 -1000 -1000 -1000 -1000 
-1000 -1000 -1000 -1000 -1000 -1000 -1000 -1000 -1000 
-1000 -1000 -1000 -1000 -1000 -1000 -1000 -1000 -1000 
-1000 -1000 -1000 -1000 -1000 -1000 -1000 -1000 -1000 
-1000 -1000 -1000 -1000 -1000 -1000 -1000 -1000 -1000 
-1000 -1000 -1000 -1000 -1000 -1000 -1000 -1000 -1000 
-1000 -1000 -1000 -1000 -1000 -1000 -1000 -1000 -1000 
-1000 -1000 -1000 -1000 -1000 -1000 -1000 -1000 -1000 
-1000 -1000 -1000 -1000 -1000 -1000 -1000 -1000 -1000 
-1000 -1000 -1000 -1000 -1000 -1000 -1000 -1000 -1000 
-1000 -1000 -1000 -1000 -1000 -1000 -1000 -1000 -1000 
-1000 -1000 -1000 -1000 -1000 -1000 -1000 -1000 -1000 
-1000 -1000 -1000 -1000 -1000 -1000 -1000 -1000 -1000 
-1000 -1000 -1000 -1000 -1000 -1000 -1000 -1000 -1000 
-1000 -1000 -1000 -1000 -1000 -1000 -1000 -1000 -1000 
-1000 -1000 -1000 -1000 -1000 -1000 -1000 -1000 -1000 
-1000 -1000 -1000 -1000 -1000 -1000 -1000 -1000 -1000 
-1000 -1000 -1000 -1000 -1000 -1000 -1000 -1000 -1000 
-1000 -1000 -1000 -1000 -1000 -1000 -1000 -1000 -1000 
-1000 -1000 -1000 -1000 -1000 -1000 -1000 -1000 -1000 
-1000 -1000 -1000 -1000 -1000 -1000 -1000 -1000 -1000 
-1000 -1000 -1000 -1000 -1000 -1000 -1000 -1000 -1000 
-1000 -1000 -1000 -1000 -1000 -1000 -1000 -1000 -1000 
-1000 -1000 -1000 -1000 -1000 -1000 -1000 -1000 -1000 
-1000 -1000 -1000 -1000 -1000 -1000 -1000 -1000 -1000 
-1000 -1000 -1000 -1000 -1000 -1000 -1000 -1000 -1000 
-1000 -1000 -1000 -1000 -1000 -1000 -1000 -1000 -1000 
-1000 -1000 -1000 -1000 -1000 -1000 -1000 -1000 -1000 
-1000 -1000 -1000 -1000 -1000 -1000 -1000 -1000 -1000 
-1000 -1000 -1000 -1000 -1000 -1000 -1000 -1000 -1000 
-1000 -1000 -1000 -1000 -1000 -1000 -1000 -1000 -1000 
-1000 -1000 -1000 -1000 -1000 -1000 -1000 -1000 -1000 
-1000 -1000 -1000 -1000 -1000 -1000 -1000 -1000 -1000 
-1000 -1000 -1000 -1000 -1000 -1000 -1000 -1000 -1000 
-1000 -1000 -1000 -1000 -1000 -1000 -1000 -1000 -1000 
-1000 -1000 -1000 -1000 -1000 -1000 -1000 -1000 -1000 
-1000 -1000 -1000 -1000 -1000 -1000 -1000 -1000 -1000 
-1000 -1000 -1000 -1000 -1000 -1000 -1000 -1000 -1000 
-1000 -1000 -1000 -1000 -1000 -1000 -1000 -1000 -1000 
-1000 -1000 -1000 -1000 -1000 -1000 -1000 -1000 -1000 
-1000 -1000 -1000 -1000 -1000 -1000 -1000 -1000 -1000 
-1000 -1000 -1000 -1000 -1000 -1000 -1000 -1000 -1000 
-1000 -1000 -1000 -1000 -1000 -1000 -1000 -1000 -1000 
-1000 -1000 -1000 -1000 -1000 -1000 -1000 -1000 -1000 
-1000 -1000 -1000 -1000 -1000 -1000 -1000 -1000 -1000 
-1000 -1000 -1000 -1000 -1000 -1000 -1000 -1000 -1000 
-1000 -1000 -1000 -1000 -1000 -1000 -1000 -1000 -1000 
-1000 -1000 -1000 -1000 -1000 -1000 -1000 -1000 -1000 
-1000 -1000 -1000 -1000 -1000 -1000 -1000 -1000 -1000 
-1000 -1000 -1000 -1000 -1000 -1000 -1000 -1000 -1000 
-1000 -1000 -1000 -1000 -1000 -1000 -1000 -1000 -1000 
-1000 -1000 -1000 -1000 -1000 -1000 -1000 -1000 -1000 
-1000 -1000 -1000 -1000 -1000 -1000 -1000 -1000 -1000 
-1000 -1000 -1000 -1000 -1000 -1000 -1000 -1000 -1000 
-1000 -1000 -1000 -1000 -1000 -1000 -1000 -1000 -1000 
-1000 -1000 -1000 -1000 -1000 -1000 -1000 -1000 -1000 
-1000 -1000 -1000 -1000 -1000 -1000 -1000 -1000 -1000 
-1000 -1000 -1000 -1000 -1000 -1000 -1000 -1000 -1000 
-1000 -1000 -1000 -1000 -1000 -1000 -1000 -1000 -1000 
-1000 -1000 -1000 -1000 -1000 -1000 -1000 -1000 -1000 
-1000 -1000 -1000 -1000 -1000 -1000 -1000 -1000 -1000 
-1000 -1000 -1000 -1000 -1000 -1000 -1000 -1000 -1000 
-1000 -1000 -1000 -1000 -1000 -1000 -1000 -1000 -1000 
-1000 -1000 -1000 -1000 -1000 -1000 -1000 -1000 -1000 
-1000 -1000 -1000 -1000 -1000 -1000 -1000 -1000 -1000 
-1000 -1000 -1000 -1000 -1000 -1000 -1000 -1000 -1000 
-1000 -1000 -1000 -1000 -1000 -1000 -1000 -1000 -1000 
-1000 -1000 -1000 -1000 -1000 -1000 -1000 -1000 -1000 
-1000 -1000 -1000 -1000 -1000 -1000 -1000 -1000 -1000 
-1000 -1000 -1000 -1000 -1000 -1000 -1000 -1000 -1000 
-1000 -1000 -1000 -1000 -1000 -1000 -1000 -1000 -1000 
-1000 -1000 -1000 -1000 -1000 -1000 -1000 -1000 -1000 
-1000 -1000 -1000 -1000 -1000 -1000 -1000 -1000 -1000 
-1000 -1000 -1000 -1000 -1000 -1000 -1000 -1000 -1000 
-1000 -1000 -1000 -1000 -1000 -1000 -1000 -1000 -1000 
-1000 -1000 -1000 -1000 -1000 -1000 -1000 -1000 -1000 
-1000 -1000 -1000 -1000 -1000 -1000 -1000 -1000 -1000 
-1000 -1000 -1000 -1000 -1000 -1000 -1000 -1000 -1000 
-1000 -1000 -1000 -1000 -1000 -1000 -1000 -1000 -1000 
-1000 -1000 -1000 -1000 -1000 -1000 -1000 -1000 -1000 
-1000 -1000 -1000 -1000 -1000 -1000 -1000 -1000 -1000 
-1000 -1000 -1000 -1000 -1000 -1000 -1000 -1000 -1000 
-1000 -1000 -1000 -1000 -1000 -1000 -1000 -1000 -1000 
-1000 -1000 -1000 -1000 -1000 -1000 -1000 -1000 -1000 
-1000 -1000 -1000 -1000 -1000 -1000 -1000 -1000 -1000 
-1000 -1000 -1000 -1000 -1000 -1000 -1000 -1000 -1000 
-1000 -1000 -1000 -1000 -1000 -1000 -1000 -1000 -1000 
-1000 -1000 -1000 -1000 -1000 -1000 -1000 -1000 -1000 
-1000 -1000 -1000 -1000 -1000 -1000 -1000 -1000 -1000 
-1000 -1000 -1000 -1000 -1000 -1000 -1000 -1000 -1000 
-1000 -1000 -1000 -1000 -1000 -1000 -1000 -1000 -1000 
-1000 -1000 -1000 -1000 -1000 -1000 -1000 -1000 -1000 
-1000 -1000 -1000 -1000 -1000 -1000 -1000 -1000 -1000 
-1000 -1000 -1000 -1000 -1000 -1000 -1000 -1000 -1000 
-1000 -1000 -1000 -1000 -1000 -1000 -1000 -1000 -1000 
-1000 -1000 -1000 -1000 -1000 -1000 -1000 -1000 -1000 
-1000 -1000 -1000 -1000 -1000 -1000 -1000 -1000 -1000 
-1000 -1000 -1000 -1000 -1000 -1000 -1000 -1000 -1000 
-1000 -1000 -1000 -1000 -1000 -1000 -1000 -1000 -1000 
-1000 -1000 -1000 -1000 -1000 -1000 -1000 -1000 -1000 
-1000 -1000 -1000 -1000 -1000 -1000 -1000 -1000 -1000 
-1000 -1000 -1000 -1000 -1000 -1000 -1000 -1000 -1000 
-1000 -1000 -1000 -1000 -1000 -1000 -1000 -1000 -1000 
-1000 -1000 -1000 -1000 -1000 -1000 -1000 -1000 -1000 
-1000 -1000 -1000 -1000 -1000 -1000 -1000 -1000 -1000 
-1000 -1000 -1000 -1000 -1000 -1000 -1000 -1000 -1000 
-1000 -1000 -1000 -1000 -1000 -1000 -1000 -1000 -1000 
-1000 -1000 -1000 -1000 -1000 -1000 -1000 -1000 -1000 
-1000 -1000 -1000 -1000 -1000 -1000 -1000 -1000 -1000 
-1000 -1000 -1000 -1000 -1000 -1000 -1000 -1000 -1000 
-1000 -1000 -1000 -1000 -1000 -1000 -1000 -1000 -1000 
-1000 -1000 -1000 -1000 -1000 -1000 -1000 -1000 -1000 
-1000 -1000 -1000 -1000 -1000 -1000 -1000 -1000 -1000 
-1000 -1000 -1000 -1000 -1000 -1000 -1000 -1000 -1000 
-1000 -1000 -1000 -1000 -1000 -1000 -1000 -1000 -1000 
-1000 -1000 -1000 -1000 -1000 -1000 -1000 -1000 -1000 
-1000 -1000 -1000 -1000 -1000 -1000 -1000 -1000 -1000 
-1000 -1000 -1000 -1000 -1000 -1000 -1000 -1000 -1000 
-1000 -1000 -1000 -1000 -1000 -1000 -1000 -1000 -1000 
-1000 -1000 -1000 -1000 -1000 -1000 -1000 -1000 -1000 
-1000 -1000 -1000 -1000 -1000 -1000 -1000 -1000 -1000 
-1000 -1000 -1000 -1000 -1000 -1000 -1000 -1000 -1000 
-1000 -1000 -1000 -1000 -1000 -1000 -1000 -1000 -1000 
-1000 -1000 -1000 -1000 -1000 -1000 -1000 -1000 -1000 
-1000 -1000 -1000 -1000 -1000 -1000 -1000 -1000 -1000 
-1000 -1000 -1000 -1000 -1000 -1000 -1000 -1000 -1000 
-1000 -1000 -1000 -1000 -1000 -1000 -1000 -1000 -1000 
-1000 -1000 -1000 -1000 -1000 -1000 -1000 -1000 -1000 
-1000 -1000 -1000 -1000 -1000 -1000 -1000 -1000 -1000 
-1000 -1000 -1000 -1000 -1000 -1000 -1000 -1000 -1000 
-1000 -1000 -1000 -1000 -1000 -1000 -1000 -1000 -1000 
-1000 -1000 -1000 -1000 -1000 -1000 -1000 -1000 -1000 
-1000 -1000 -1000 -1000 -1000 -1000 -1000 -1000 -1000 
-1000 -1000 -1000 -1000 -1000 -1000 -1000 -1000 -1000 
-1000 -1000 -1000 -1000 -1000 -1000 -1000 -1000 -1000 
-1000 -1000 -1000 -1000 -1000 -1000 -1000 -1000 -1000 
-1000 -1000 -1000 -1000 -1000 -1000 -1000 -1000 -1000 
-1000 -1000 -1000 -1000 -1000 -1000 -1000 -1000 -1000 
-1000 -1000 -1000 -1000 -1000 -1000 -1000 -1000 -1000 
-1000 -1000 -1000 -1000 -1000 -1000 -1000 -1000 -1000 
-1000 -1000 -1000 -1000 -1000 -1000 -1000 -1000 -1000 
-1000 -1000 -1000 -1000 -1000 -1000 -1000 -1000 -1000 
-1000 -1000 -1000 -1000 -1000 -1000 -1000 -1000 -1000 
-1000 -1000 -1000 -1000 -1000 -1000 -1000 -1000 -1000 
-1000 -1000 -1000 -1000 -1000 -1000 -1000 -1000 -1000 
-1000 -1000 -1000 -1000 -1000 -1000 -1000 -1000 -1000 
-1000 -1000 -1000 -1000 -1000 -1000 -1000 -1000 -1000 
-1000 -1000 -1000 -1000 -1000 -1000 -1000 -1000 -1000 
-1000 -1000 -1000 -1000 -1000 -1000 -1000 -1000 -1000 
-1000 -1000 -1000 -1000 -1000 -1000 -1000 -1000 -1000 
-1000 -1000 -1000 -1000 -1000 -1000 -1000 -1000 -1000 
-1000 -1000 -1000 -1000 -1000 -1000 -1000 -1000 -1000 
-1000 -1000 -1000 -1000 -1000 -1000 -1000 -1000 -1000 
-1000 -1000 -1000 -1000 -1000 -1000 -1000 -1000 -1000 
-1000 -1000 -1000 -1000 -1000 -1000 -1000 -1000 -1000 
-1000 -1000 -1000 -1000 -1000 -1000 -1000 -1000 -1000 
-1000 -1000 -1000 -1000 -1000 -1000 -1000 -1000 -1000 
-1000 -1000 -1000 -1000 -1000 -1000 -1000 -1000 -1000 
-1000 -1000 -1000 -1000 -1000 -1000 -1000 -1000 -1000 
-1000 -1000 -1000 -1000 -1000 -1000 -1000 -1000 -1000 
-1000 -1000 -1000 -1000 -1000 -1000 -1000 -1000 -1000 
-1000 -1000 -1000 -1000 -1000 -1000 -1000 -1000 -1000 
-1000 -1000 -1000 -1000 -1000 -1000 -1000 -1000 -1000 
-1000 -1000 -1000 -1000 -1000 -1000 -1000 -1000 -1000 
-1000 -1000 -1000 -1000 -1000 -1000 -1000 -1000 -1000 
-1000 -1000 -1000 -1000 -1000 -1000 -1000 -1000 -1000 
-1000 -1000 -1000 -1000 -1000 -1000 -1000 -1000 -1000 
-1000 -1000 -1000 -1000 -1000 -1000 -1000 -1000 -1000 
-1000 -1000 -1000 -1000 -1000 -1000 -1000 -1000 -1000 
-1000 -1000 -1000 -1000 -1000 -1000 -1000 -1000 -1000 
-1000 -1000 -1000 -1000 -1000 -1000 -1000 -1000 -1000 
-1000 -1000 -1000 -1000 -1000 -1000 -1000 -1000 -1000 
-1000 -1000 -1000 -1000 -1000 -1000 -1000 -1000 -1000 
-1000 -1000 -1000 -1000 -1000 -1000 -1000 -1000 -1000 
-1000 -1000 -1000 -1000 -1000 -1000 -1000 -1000 -1000 
-1000 -1000 -1000 -1000 -1000 -1000 -1000 -1000 -1000 
-1000 -1000 -1000 -1000 -1000 -1000 -1000 -1000 -1000 
-1000 -1000 -1000 -1000 -1000 -1000 -1000 -1000 -1000 
-1000 -1000 -1000 -1000 -1000 -1000 -1000 -1000 -1000 
-1000 -1000 -1000 -1000 -1000 -1000 -1000 -1000 -1000 
-1000 -1000 -1000 -1000 -1000 -1000 -1000 -1000 -1000 
-1000 -1000 -1000 -1000 -1000 -1000 -1000 -1000 -1000 
-1000 -1000 -1000 -1000 -1000 -1000 -1000 -1000 -1000 
-1000 -1000 -1000 -1000 -1000 -1000 -1000 -1000 -1000 
-1000 -1000 -1000 -1000 -1000 -1000 -1000 -1000 -1000 
-1000 -1000 -1000 -1000 -1000 -1000 -1000 -1000 -1000 
-1000 -1000 -1000 -1000 -1000 -1000 -1000 -1000 -1000 
-1000 -1000 -1000 -1000 -1000 -1000 -1000 -1000 -1000 
-1000 -1000 -1000 -1000 -1000 -1000 -1000 -1000 -1000 
-1000 -1000 -1000 -1000 -1000 -1000 -1000 -1000 -1000 
-1000 -1000 -1000 -1000 -1000 -1000 -1000 -1000 -1000 
-1000 -1000 -1000 -1000 -1000 -1000 -1000 -1000 -1000 
-1000 -1000 -1000 -1000 -1000 -1000 -1000 -1000 -1000 
-1000 -1000 -1000 -1000 -1000 -1000 -1000 -1000 -1000 
-1000 -1000 -1000 -1000 -1000 -1000 -1000 -1000 -1000 
-1000 -1000 -1000 -1000 -1000 -1000 -1000 -1000 -1000 
-1000 -1000 -1000 -1000 -1000 -1000 -1000 -1000 -1000 
-1000 -1000 -1000 -1000 -1000 -1000 -1000 -1000 -1000 
-1000 -1000 -1000 -1000 -1000 -1000 -1000 -1000 -1000 
-1000 -1000 -1000 -1000 -1000 -1000 -1000 -1000 -1000 
-1000 -1000 -1000 -1000 -1000 -1000 -1000 -1000 -1000 
-1000 -1000 -1000 -1000 -1000 -1000 -1000 -1000 -1000 
-1000 -1000 -1000 -1000 -1000 -1000 -1000 -1000 -1000 
-1000 -1000 -1000 -1000 -1000 -1000 -1000 -1000 -1000 
-1000 -1000 -1000 -1000 -1000 -1000 -1000 -1000 -1000 
-1000 -1000 -1000 -1000 -1000 -1000 -1000 -1000 -1000 
-1000 -1000 -1000 -1000 -1000 -1000 -1000 -1000 -1000 
-1000 -1000 -1000 -1000 -1000 -1000 -1000 -1000 -1000 
-1000 -1000 -1000 -1000 -1000 -1000 -1000 -1000 -1000 
-1000 -1000 -1000 -1000 -1000 -1000 -1000 -1000 -1000 
-1000 -1000 -1000 -1000 -1000 -1000 -1000 -1000 -1000 
-1000 -1000 -1000 -1000 -1000 -1000 -1000 -1000 -1000 
-1000 -1000 -1000 -1000 -1000 -1000 -1000 -1000 -1000 
-1000 -1000 -1000 -1000 -1000 -1000 -1000 -1000 -1000 
-1000 -1000 -1000 -1000 -1000 -1000 -1000 -1000 -1000 
-1000 -1000 -1000 -1000 -1000 -1000 -1000 -1000 -1000 
-1000 -1000 -1000 -1000 -1000 -1000 -1000 -1000 -1000 
-1000 -1000 -1000 -1000 -1000 -1000 -1000 -1000 -1000 
-1000 -1000 -1000 -1000 -1000 -1000 -1000 -1000 -1000 
-1000 -1000 -1000 -1000 -1000 -1000 -1000 -1000 -1000 
-1000 -1000 -1000 -1000 -1000 -1000 -1000 -1000 -1000 
-1000 -1000 -1000 -1000 -1000 -1000 -1000 -1000 -1000 
-1000 -1000 -1000 -1000 -1000 -1000 -1000 -1000 -1000 
-1000 -1000 -1000 -1000 -1000 -1000 -1000 -1000 -1000 
-1000 -1000 -1000 -1000 -1000 -1000 -1000 -1000 -1000 
-1000 -1000 -1000 -1000 -1000 -1000 -1000 -1000 -1000 
-1000 -1000 -1000 -1000 -1000 -1000 -1000 -1000 -1000 
-1000 -1000 -1000 -1000 -1000 -1000 -1000 -1000 -1000 
-1000 -1000 -1000 -1000 -1000 -1000 -1000 -1000 -1000 
-1000 -1000 -1000 -1000 -1000 -1000 -1000 -1000 -1000 
-1000 -1000 -1000 -1000 -1000 -1000 -1000 -1000 -1000 
-1000 -1000 -1000 -1000 -1000 -1000 -1000 -1000 -1000 