# vtk DataFile Version 3.0
vtk output
ASCII
DATASET POLYDATA
POINTS 17746 float
-85.8132 18.5132 -34.2866 -85.445 17.5324 -34.1312 -84.9964 17.8761 -34.1618 
-86.7487 18.8116 -34.2809 -86.2167 17.8087 -34.1641 -86.9396 18.2373 -34.1597 
-83.9314 18.6762 -34.1445 -83.4568 17.8179 -34.0011 -83.0247 18.4635 -33.9851 
-84.9602 18.8582 -34.2772 -84.2341 17.8099 -34.0889 -85.8424 19.5191 -34.403 
-86.5983 19.6796 -34.3912 -87.3765 18.9703 -34.1927 -87.5125 19.9382 -34.2574 
-88.277 20.4726 -34.0531 -88.0174 19.5327 -34.0805 -88.6364 20.2267 -33.9083 
-83.5232 19.6869 -34.1517 -82.6448 19.1586 -33.9688 -84.5855 19.874 -34.2938 
-85.5389 20.2231 -34.393 -86.4066 20.5813 -34.4255 -87.2575 20.9138 -34.3159 
-88.0891 21.2208 -34.0714 -88.8551 21.3269 -33.7402 -82.6578 20.3119 -34.0735 
-82.0536 19.2868 -33.8709 -81.7643 19.862 -33.8905 -83.6321 20.871 -34.2082 
-84.4098 20.9414 -34.2726 -85.3201 21.1819 -34.3413 -86.2136 21.5116 -34.3457 
-86.9616 21.6812 -34.2899 -87.7982 22.2615 -33.9554 -88.534 22.1501 -33.7056 
-81.83 20.9367 -34.0189 -81.2189 20.0551 -33.8056 -80.9324 20.8724 -33.819 
-82.6647 21.5267 -34.1598 -83.4063 21.6829 -34.1918 -84.2921 21.9965 -34.2171 
-85.2059 22.2438 -34.2311 -85.9902 22.3294 -34.2381 -86.9936 22.9462 -33.9927 
-88.0033 23.496 -33.4775 -88.5403 23.0241 -33.3799 -81.4896 22.0152 -34.027 
-80.6583 21.8776 -33.7949 -82.3696 22.3057 -34.1505 -83.2199 22.6257 -34.1733 
-84.0889 22.9761 -34.1249 -85.0509 23.3401 -34.0569 -86.1359 23.5704 -33.9689 
-87.0706 24.1941 -33.6702 -87.6519 24.1072 -33.4808 -81.2601 23.0404 -33.9757 
-80.495 22.9282 -33.7156 -82.1331 23.2974 -34.1049 -83.0456 23.5885 -34.0979 
-83.8085 23.7269 -34.0483 -84.7374 24.4252 -33.823 -85.7871 24.6358 -33.7003 
-86.7653 24.9529 -33.5018 -81.1002 23.9918 -33.8369 -80.4831 23.9766 -33.5645 
-81.9091 24.2552 -33.9704 -82.8481 24.5829 -33.9477 -83.9118 24.8789 -33.7879 
-84.8456 25.551 -33.4611 -85.6134 25.6074 -33.3736 -86.4047 25.661 -33.3106 
-81.0361 24.7192 -33.6297 -80.7418 24.9374 -33.381 -81.6917 25.0554 -33.7094 
-82.5821 25.4447 -33.692 -83.5388 25.7858 -33.5532 -84.4957 26.1795 -33.2907 
-81.4427 25.6248 -33.3631 -82.3446 26.1617 -33.3245 -83.3053 26.5657 -33.2274 
-84.1246 26.7589 -33.1156 -86.3209 15.3649 -33.9695 -86.033 14.4816 -33.9535 
-85.5405 14.8253 -33.9523 -87.3467 15.6219 -33.9449 -86.8086 14.6257 -33.9422 
-88.2719 15.9668 -33.8726 -87.7299 14.9052 -33.8871 -89.1022 16.3482 -33.7465 
-88.6137 15.3258 -33.7835 -89.3095 15.8393 -33.6618 -84.1752 15.5374 -33.9321 
-83.881 14.7702 -33.9158 -83.3742 15.2047 -33.8996 -85.3296 15.6395 -33.9736 
-84.7243 14.7697 -33.9384 -86.1966 16.2603 -34.0054 -87.0405 16.4515 -33.985 
-87.9909 16.7817 -33.9316 -88.93 17.1617 -33.8406 -89.6872 16.5711 -33.6168 
-89.8492 17.4717 -33.6836 -90.1895 17.0943 -33.5468 -83.1074 16.0364 -33.9021 
-82.7006 15.2973 -33.8937 -82.2368 15.7627 -33.8838 -84.0363 16.33 -33.953 
-84.7524 16.2248 -33.981 -85.6117 16.7811 -34.0407 -86.7536 17.3359 -34.0505 
-87.7556 17.6803 -33.9674 -88.7293 18.1167 -33.8789 -89.7123 18.5087 -33.7734 
-90.5852 17.8614 -33.5464 -90.7256 18.857 -33.5975 -91.5552 19.4321 -33.3565 
-91.2767 18.4765 -33.4028 -92.0234 19.2215 -33.067 -82.0354 16.5884 -33.8404 
-81.571 15.8671 -33.856 -81.156 16.3286 -33.7839 -82.8208 16.7441 -33.8906 
-83.5505 16.9928 -33.9523 -84.6469 17.0285 -34.0308 -87.5689 18.4606 -34.0597 
-88.5162 19.1546 -33.9095 -89.5046 19.5572 -33.7544 -90.4805 19.9192 -33.6066 
-91.3865 20.2049 -33.348 -92.0759 20.2163 -32.9837 -81.0671 17.1258 -33.684 
-80.5315 16.4654 -33.6697 -80.1421 17.1156 -33.5091 -81.819 17.4863 -33.7733 
-82.6645 17.46 -33.8825 -89.263 20.538 -33.7032 -90.1969 21.0532 -33.4444 
-91.1336 21.1767 -33.2294 -92.0032 21.3711 -32.7222 -80.604 17.9863 -33.5377 
-79.7602 17.9359 -33.3558 -81.3426 17.979 -33.6847 -82.0918 18.3691 -33.815 
-89.637 21.745 -33.375 -90.2463 22.115 -33.1156 -90.8773 22.1203 -32.9725 
-91.5681 22.1523 -32.7075 -80.1892 18.8328 -33.444 -79.4859 18.6637 -33.2809 
-81.2083 18.9993 -33.6892 -89.2082 22.6032 -33.2304 -89.8983 22.6133 -32.9961 
-79.6064 19.6436 -33.3577 -78.9757 18.9414 -33.222 -78.7266 19.7561 -33.2028 
-80.5231 19.84 -33.6069 -88.6398 23.8205 -33.018 -89.0788 23.5054 -32.9182 
-79.3111 20.7696 -33.3247 -78.5 20.8008 -33.1261 -80.1249 20.7851 -33.5701 
-87.8068 25.1734 -33.1673 -88.446 24.5485 -32.9602 -79.1402 21.8733 -33.2385 
-78.3601 21.8954 -33.0075 -79.8949 21.8493 -33.5132 -87.4126 26.2789 -33.0204 
-88.7402 25.5374 -32.6953 -88.6787 26.5206 -32.6781 -89.5647 27.1414 -32.3254 
-89.6705 26.2692 -32.1672 -90.0962 27.237 -32.0043 -79.0871 23.0466 -33.103 
-78.278 23.0247 -32.8654 -79.818 22.9909 -33.4003 -85.4493 26.5259 -33.0591 
-86.5134 26.7388 -32.9501 -87.4904 27.4057 -32.7486 -88.3211 27.5236 -32.6462 
-89.2475 27.7761 -32.3965 -90.0032 27.9333 -32.0493 -79.0707 24.2454 -32.9241 
-78.2192 24.1607 -32.7093 -79.9923 24.3896 -33.1983 -85.0874 27.4065 -32.7939 
-86.1686 27.6964 -32.6673 -87.1566 28.0909 -32.5798 -88.1067 28.4821 -32.4738 
-89.0048 28.696 -32.3 -89.8114 28.7899 -32.0105 -79.0195 25.3707 -32.732 
-78.1915 25.2623 -32.5401 -79.9611 25.6282 -32.8965 -80.9983 26.013 -33.0259 
-82.1252 26.8135 -32.9545 -83.143 27.3321 -32.8588 -84.2368 27.7251 -32.7271 
-85.1918 28.4214 -32.4661 -85.9552 28.6016 -32.4161 -86.8735 28.955 -32.3586 
-87.8222 29.3767 -32.2913 -88.8554 29.8101 -32.1136 -89.6247 29.6927 -31.9191 
-78.9323 26.3428 -32.5429 -78.2641 26.1523 -32.3938 -79.8633 26.7055 -32.6779 
-80.9039 27.1058 -32.7183 -81.9541 27.6014 -32.6634 -82.9722 28.12 -32.5605 
-83.9543 28.5695 -32.4452 -84.8975 29.0254 -32.308 -85.7668 29.4426 -32.1972 
-86.6182 29.8159 -32.1444 -87.5059 30.2364 -32.1078 -88.4314 30.6791 -32.0121 
-89.5849 30.4677 -31.8085 -89.3623 31.1286 -31.7541 -89.8969 31.0378 -31.5617 
-78.7411 26.9451 -32.3742 -78.8312 27.784 -32.2798 -79.6249 27.6898 -32.4715 
-80.7657 28.1122 -32.5328 -81.8242 28.5363 -32.4617 -82.8231 28.975 -32.344 
-83.7648 29.4036 -32.2245 -84.6625 29.8197 -32.111 -85.5228 30.2331 -32.0119 
-86.3603 30.6453 -31.9476 -87.2031 31.0697 -31.9166 -88.0691 31.4987 -31.8638 
-88.9402 31.8786 -31.682 -89.966 31.5832 -31.3724 -89.7196 32.119 -31.3065 
-90.3168 32.0245 -30.8032 -79.6437 28.8394 -32.3235 -78.8351 28.7391 -32.1725 
-80.614 29.0961 -32.3899 -81.6624 29.4687 -32.3212 -82.6575 29.8601 -32.1865 
-83.5811 30.2529 -32.0514 -84.4476 30.6453 -31.9355 -85.2778 31.0438 -31.841 
-86.0893 31.4559 -31.7753 -86.9018 31.8835 -31.7394 -87.7316 32.3072 -31.6929 
-88.5787 32.6652 -31.5334 -89.4012 32.8543 -31.1552 -90.115 32.7662 -30.583 
-79.532 29.7048 -32.1847 -78.8855 29.5197 -32.0764 -80.4352 30.0317 -32.2519 
-81.4605 30.3726 -32.1984 -82.4529 30.7312 -32.0602 -83.3692 31.0966 -31.9126 
-84.2175 31.4693 -31.79 -85.0222 31.8554 -31.697 -85.807 32.261 -31.6338 
-86.591 32.6866 -31.5957 -87.3922 33.1114 -31.5451 -88.221 33.4692 -31.3818 
-89.056 33.6454 -30.9825 -89.8395 33.5294 -30.3295 -79.2962 30.2268 -32.0541 
-79.2346 30.9767 -31.9687 -80.0873 30.9099 -32.0857 -81.2027 31.2523 -32.0682 
-82.2049 31.5851 -31.946 -83.1187 31.9289 -31.7991 -83.9572 32.2862 -31.6752 
-84.7435 32.6624 -31.585 -85.5045 33.0624 -31.5256 -86.2617 33.4815 -31.4896 
-87.0324 33.9066 -31.4393 -87.8384 34.2833 -31.2751 -88.6788 34.4792 -30.8601 
-89.4996 34.3582 -30.1427 -79.8483 32.07 -31.9611 -78.9963 31.7031 -31.923 
-80.917 32.1707 -31.9447 -81.9129 32.4415 -31.8416 -82.8244 32.761 -31.7073 
-83.6581 33.1042 -31.5901 -84.4336 33.4669 -31.5047 -85.1737 33.857 -31.4449 
-85.9089 34.2701 -31.402 -86.6472 34.6648 -31.3579 -87.402 35.0644 -31.2129 
-88.2349 35.3517 -30.8142 -89.1067 35.2776 -30.0639 -79.0253 32.6627 -31.9316 
-78.4022 31.9015 -31.915 -78.0551 32.6363 -31.9209 -79.869 33.0905 -31.9154 
-80.6565 33.1116 -31.8617 -81.5862 33.3131 -31.7577 -82.4807 33.6032 -31.6345 
-83.3127 33.9332 -31.5265 -84.0904 34.2804 -31.4438 -84.8162 34.6253 -31.3807 
-85.517 35.0312 -31.3079 -86.2579 35.4322 -31.2328 -86.9422 35.6329 -31.1672 
-87.6256 36.2079 -30.8248 -88.6266 36.3393 -30.1239 -78.551 33.574 -31.8982 
-77.7169 33.5318 -31.8697 -79.4386 33.7551 -31.8821 -80.3289 33.9656 -31.8088 
-81.2119 34.1695 -31.6928 -82.0813 34.444 -31.5634 -82.9127 34.7634 -31.4538 
-83.7022 35.1009 -31.3689 -84.4589 35.419 -31.2872 -85.1029 35.6019 -31.229 
-85.749 36.2386 -31.0269 -86.7163 36.5043 -30.9086 -87.365 37.0536 -30.629 
-87.9779 37.032 -30.394 -78.1693 34.3537 -31.8114 -77.5642 34.2751 -31.7786 
-78.9818 34.552 -31.7975 -79.8953 34.759 -31.7285 -80.7834 34.9619 -31.6172 
-81.6187 35.2324 -31.4621 -82.4448 35.5594 -31.3136 -83.2561 35.8816 -31.2193 
-84.0415 36.2085 -31.1249 -84.8953 36.5116 -30.9825 -85.5163 37.1009 -30.7132 
-86.1858 37.2349 -30.6504 -86.8815 37.3982 -30.5619 -77.8378 34.8735 -31.6964 
-77.8062 35.5476 -31.4961 -78.4814 35.3144 -31.6191 -79.4312 35.5267 -31.5579 
-80.3576 35.7191 -31.4452 -81.132 35.8055 -31.3524 -81.8591 36.3169 -31.0517 
-82.7707 36.577 -30.9371 -83.5565 36.8884 -30.8604 -84.3084 37.1921 -30.7509 
-85.006 37.5579 -30.5665 -78.318 36.0299 -31.3554 -77.9117 36.2704 -31.2202 
-78.9958 36.2051 -31.2889 -79.9072 36.4261 -31.1547 -80.9216 36.5955 -30.983 
-81.6272 37.0628 -30.637 -82.3171 37.2124 -30.5609 -83.0908 37.4876 -30.5075 
-83.8353 37.8022 -30.4637 -84.4845 37.9942 -30.4145 -78.5391 36.7259 -31.0329 
-79.4046 37.0377 -30.8518 -80.3402 37.2544 -30.6721 -81.1207 37.3694 -30.5155 
-89.2231 12.2495 -34.0847 -89.0366 11.4362 -33.9885 -88.4984 11.7008 -34.0442 
-90.2064 12.5374 -34.0579 -89.8099 11.6628 -33.9633 -91.0246 12.8223 -33.9566 
-90.6705 12.0115 -33.899 -91.2923 12.3704 -33.8175 -53.4675 1.21741 -41.3859 
-53.2187 0.277143 -41.1548 -52.704 0.737105 -41.3845 -54.5078 1.29288 -41.1844 
-54.0137 0.310645 -41.0028 -55.4779 1.44082 -40.987 -54.9738 0.411305 -40.8024 
-56.4347 1.64036 -40.7843 -55.9338 0.572711 -40.5982 -57.3558 1.88732 -40.5552 
[...]
POINT_DATA 17746
SCALARS scalars float
LOOKUP_TABLE default
-1000 -1000 -1000 -1000 -1000 -1000 -1000 -1000 -1000 
-1000 -1000 -1000 -1000 -1000 -1000 -1000 -1000 -1000 
-1000 -1000 -1000 -1000 -1000 -1000 -1000 -1000 -1000 
-1000 -1000 -1000 -1000 -1000 -1000 -1000 -1000 -1000 
-1000 -1000 -1000 -1000 -1000 -1000 -1000 -1000 -1000 
-1000 -1000 -1000 -1000 -1000 -1000 -1000 -1000 -1000 
-1000 -1000 -1000 -1000 -1000 -1000 -1000 -1000 -1000 
-1000 -1000 -1000 -1000 -1000 -1000 -1000 -1000 -1000 
-1000 -1000 -1000 -1000 -1000 -1000 -1000 -1000 -1000 
-1000 -1000 -1000 -1000 -1000 -1000 -1000 -1000 -1000 
-1000 -1000 -1000 -1000 -1000 -1000 -1000 -1000 -1000 
-1000 -1000 -1000 -1000 -1000 -1000 -1000 -1000 -1000 
-1000 -1000 -1000 -1000 -1000 -1000 -1000 -1000 -1000 
-1000 -1000 -1000 -1000 -1000 -1000 -1000 -1000 -1000 
-1000 -1000 -1000 -1000 -1000 -1000 -1000 -1000 -1000 
-1000 -1000 -1000 -1000 -1000 -1000 -1000 -1000 -1000 
-1000 -1000 -1000 -1000 -1000 -1000 -1000 -1000 -1000 
-1000 -1000 -1000 -1000 -1000 -1000 -1000 -1000 -1000 
-1000 -1000 -1000 -1000 -1000 -1000 -1000 -1000 -1000 
-1000 -1000 -1000 -1000 -1000 -1000 -1000 -1000 -1000 
-1000 -1000 -1000 -1000 -1000 -1000 -1000 -1000 -1000 
-1000 -1000 -1000 -1000 -1000 -1000 -1000 -1000 -1000 
-1000 -1000 -1000 -1000 -1000 -1000 -1000 -1000 -1000 
-1000 -1000 -1000 -1000 -1000 -1000 -1000 -1000 -1000 
-1000 -1000 -1000 -1000 -1000 -1000 -1000 -1000 -1000 
-1000 -1000 -1000 -1000 -1000 -1000 -1000 -1000 -1000 
-1000 -1000 -1000 -1000 -1000 -1000 -1000 -1000 -1000 
-1000 -1000 -1000 -1000 -1000 -1000 -1000 -1000 -1000 
-1000 -1000 -1000 -1000 -1000 -1000 -1000 -1000 -1000 
-1000 -1000 -1000 -1000 -1000 -1000 -1000 -1000 -1000 
-1000 -1000 -1000 -1000 -1000 -1000 -1000 -1000 -1000 
-1000 -1000 -1000 -1000 -1000 -1000 -1000 -1000 -1000 
-1000 -1000 -1000 -1000 -1000 -1000 -1000 -1000 -1000 
-1000 -1000 -1000 -1000 -1000 -1000 -1000 -1000 -1000 
-1000 -1000 -1000 -1000 -1000 -1000 -1000 -1000 -1000 
-1000 -1000 -1000 -1000 -1000 -1000 -1000 -1000 -1000 
-1000 -1000 -1000 -1000 -1000 -1000 -1000 -1000 -1000 
-1000 -1000 -1000 -1000 -1000 -1000 -1000 -1000 -1000 
-1000 -1000 -1000 -1000 -1000 -1000 -1000 -1000 -1000 
-1000 -1000 -1000 -1000 -1000 -1000 -1000 -1000 -1000 
-1000 -1000 -1000 -1000 -1000 -1000 -1000 -1000 -1000 
-1000 -1000 -1000 -1000 -1000 -1000 -1000 -1000 -1000 
-1000 -1000 -1000 -1000 -1000 -1000 -1000 -1000 -1000 
-1000 -1000 -1000 -1000 -1000 -1000 -1000 -1000 -1000 
-1000 -1000 -1000 -1000 -1000 -1000 -1000 -1000 -1000 
-1000 -1000 -1000 -1000 -1000 -1000 -1000 -1000 -1000 
-1000 -1000 -1000 -1000 -1000 -1000 -1000 -1000 -1000 
-1000 -1000 -1000 -1000 -1000 -1000 -1000 -1000 -1000 
-1000 -1000 -1000 -1000 -1000 -1000 -1000 -1000 -1000 
-1000 -1000 -1000 -1000 -1000 -1000 -1000 -1000 -1000 
-1000 -1000 -1000 -1000 -1000 -1000 -1000 -1000 -1000 
-1000 -1000 -1000 -1000 -1000 -1000 -1000 -1000 -1000 
-1000 -1000 -1000 -1000 -1000 -1000 -1000 -1000 -1000 
-1000 -1000 -1000 -1000 -1000 -1000 -1000 -1000 -1000 
-1000 -1000 -1000 -1000 -1000 -1000 -1000 -1000 -1000 
-1000 -1000 -1000 -1000 -1000 -1000 -1000 -1000 -1000 
-1000 -1000 -1000 -1000 -1000 -1000 -1000 -1000 -1000 
-1000 -1000 -1000 -1000 -1000 -1000 -1000 -1000 -1000 
-1000 -1000 -1000 -1000 -1000 -1000 -1000 -1000 -1000 
-1000 -1000 -1000 -1000 -1000 -1000 -1000 -1000 -1000 
-1000 -1000 -1000 -1000 -1000 -1000 -1000 -1000 -1000 
-1000 -1000 -1000 -1000 -1000 -1000 -1000 -1000 -1000 
-1000 -1000 -1000 -1000 -1000 -1000 -1000 -1000 -1000 
-1000 -1000 -1000 -1000 -1000 -1000 -1000 -1000 -1000 
-1000 -1000 -1000 -1000 -1000 -1000 -1000 -1000 -1000 
-1000 -1000 -1000 -1000 -1000 -1000 -1000 -1000 -1000 
-1000 -1000 -1000 -1000 -1000 -1000 -1000 -1000 -1000 
-1000 -1000 -1000 -1000 -1000 -1000 -1000 -1000 -1000 
-1000 -1000 -1000 -1000 -1000 -1000 -1000 -1000 -1000 
-1000 -1000 -1000 -1000 -1000 -1000 -1000 -1000 -1000 
-1000 -1000 -1000 -1000 -1000 -1000 -1000 -1000 -1000 
-1000 -1000 -1000 -1000 -1000 -1000 -1000 -1000 -1000 
-1000 -1000 -1000 -1000 -1000 -1000 -1000 -1000 -1000 
-1000 -1000 -1000 -1000 -1000 -1000 -1000 -1000 -1000 
-1000 -1000 -1000 -1000 -1000 -1000 -1000 -1000 -1000 
-1000 -1000 -1000 -1000 -1000 -1000 -1000 -1000 -1000 
-1000 -1000 -1000 -1000 -1000 -1000 -1000 -1000 -1000 
-1000 -1000 -1000 -1000 -1000 -1000 -1000 -1000 -1000 
-1000 -1000 -1000 -1000 -1000 -1000 -1000 -1000 -1000 
-1000 -1000 -1000 -1000 -1000 -1000 -1000 -1000 -1000 
-1000 -1000 -1000 -1000 -1000 -1000 -1000 -1000 -1000 
-1000 -1000 -1000 -1000 -1000 -1000 -1000 -1000 -1000 
-1000 -1000 -1000 -1000 -1000 -1000 -1000 -1000 -1000 
-1000 -1000 -1000 -1000 -1000 -1000 -1000 -1000 -1000 
-1000 -1000 -1000 -1000 -1000 -1000 -1000 -1000 -1000 
-1000 -1000 -1000 -1000 -1000 -1000 -1000 -1000 -1000 
-1000 -1000 -1000 -1000 -1000 -1000 -1000 -1000 -1000 
-1000 -1000 -1000 -1000 -1000 -1000 -1000 -1000 -1000 
-1000 -1000 -1000 -1000 -1000 -1000 -1000 -1000 -1000 
-1000 -1000 -1000 -1000 -1000 -1000 -1000 -1000 -1000 
-1000 -1000 -1000 -1000 -1000 -1000 -1000 -1000 -1000 
-1000 -1000 -1000 -1000 -1000 -1000 -1000 -1000 -1000 
-1000 -1000 -1000 -1000 -1000 -1000 -1000 -1000 -1000 
-1000 -1000 -1000 -1000 -1000 -1000 -1000 -1000 -1000 
-1000 -1000 -1000 -1000 -1000 -1000 -1000 -1000 -1000 
-1000 -1000 -1000 -1000 -1000 -1000 -1000 -1000 -1000 
-1000 -1000 -1000 -1000 -1000 -1000 -1000 -1000 -1000 
-1000 -1000 -1000 -1000 -1000 -1000 -1000 -1000 -1000 
-1000 -1000 -1000 -1000 -1000 -1000 -1000 -1000 -1000 
-1000 -1000 -1000 -1000 -1000 -1000 -1000 -1000 -1000 
-1000 -1000 -1000 -1000 -1000 -1000 -1000 -1000 -1000 
-1000 -1000 -1000 -1000 -1000 -1000 -1000 -1000 -1000 
-1000 -1000 -1000 -1000 -1000 -1000 -1000 -1000 -1000 
-1000 -1000 -1000 -1000 -1000 -1000 -1000 -1000 -1000 
-1000 -1000 -1000 -1000 -1000 -1000 -1000 -1000 -1000 
-1000 -1000 -1000 -1000 -1000 -1000 -1000 -1000 -1000 
-1000 -1000 -1000 -1000 -1000 -1000 -1000 -1000 -1000 
-1000 -1000 -1000 -1000 -1000 -1000 -1000 -1000 -1000 
-1000 -1000 -1000 -1000 -1000 -1000 -1000 -1000 -1000 
-1000 -1000 -1000 -1000 -1000 -1000 -1000 -1000 -1000 
-1000 -1000 -1000 -1000 -1000 -1000 -1000 -1000 -1000 
-1000 -1000 -1000 -1000 -1000 -1000 -1000 -1000 -1000 
-1000 -1000 -1000 -1000 -1000 -1000 -1000 -1000 -1000 
-1000 -1000 -1000 -1000 -1000 -1000 -1000 -1000 -1000 
-1000 -1000 -1000 -1000 -1000 -1000 -1000 -1000 -1000 
-1000 -1000 -1000 -1000 -1000 -1000 -1000 -1000 -1000 
-1000 -1000 -1000 -1000 -1000 -1000 -1000 -1000 -1000 
-1000 -1000 -1000 -1000 -1000 -1000 -1000 -1000 -1000 
-1000 -1000 -1000 -1000 -1000 -1000 -1000 -1000 -1000 
-1000 -1000 -1000 -1000 -1000 -1000 -1000 -1000 -1000 
-1000 -1000 -1000 -1000 -1000 -1000 -1000 -1000 -1000 
-1000 -1000 -1000 -1000 -1000 -1000 -1000 -1000 -1000 
-1000 -1000 -1000 -1000 -1000 -1000 -1000 -1000 -1000 
-1000 -1000 -1000 -1000 -1000 -1000 -1000 -1000 -1000 
-1000 -1000 -1000 -1000 -1000 -1000 -1000 -1000 -1000 
-1000 -1000 -1000 -1000 -1000 -1000 -1000 -1000 -1000 
-1000 -1000 -1000 -1000 -1000 -1000 -1000 -1000 -1000 
-1000 -1000 -1000 -1000 -1000 -1000 -1000 -1000 -1000 
-1000 -1000 -1000 -1000 -1000 -1000 -1000 -1000 -1000 
-1000 -1000 -1000 -1000 -1000 -1000 -1000 -1000 -1000 
-1000 -1000 -1000 -1000 -1000 -1000 -1000 -1000 -1000 
-1000 -1000 -1000 -1000 -1000 -1000 -1000 -1000 -1000 
-1000 -1000 -1000 -1000 -1000 -1000 -1000 -1000 -1000 
-1000 -1000 -1000 -1000 -1000 -1000 -1000 -1000 -1000 
-1000 -1000 -1000 -1000 -1000 -1000 -1000 -1000 -1000 
-1000 -1000 -1000 -1000 -1000 -1000 -1000 -1000 -1000 
-1000 -1000 -1000 -1000 -1000 -1000 -1000 -1000 -1000 
-1000 -1000 -1000 -1000 -1000 -1000 -1000 -1000 -1000 
-1000 -1000 -1000 -1000 -1000 -1000 -1000 -1000 -1000 
-1000 -1000 -1000 -1000 -1000 -1000 -1000 -1000 -1000 
-1000 -1000 -1000 -1000 -1000 -1000 -1000 -1000 -1000 
-1000 -1000 -1000 -1000 -1000 -1000 -1000 -1000 -1000 
-1000 -1000 -1000 -1000 -1000 -1000 -1000 -1000 -1000 
-1000 -1000 -1000 -1000 -1000 -1000 -1000 -1000 -1000 
-1000 -1000 -1000 -1000 -1000 -1000 -1000 -1000 -1000 
-1000 -1000 -1000 -1000 -1000 -1000 -1000 -1000 -1000 
-1000 -1000 -1000 -1000 -1000 -1000 -1000 -1000 -1000 
-1000 -1000 -1000 -1000 -1000 -1000 -1000 -1000 -1000 
-1000 -1000 -1000 -1000 -1000 -1000 -1000 -1000 -1000 
-1000 -1000 -1000 -1000 -1000 -1000 -1000 -1000 -1000 
-1000 -1000 -1000 -1000 -1000 -1000 -1000 -1000 -1000 
-1000 -1000 -1000 -1000 -1000 -1000 -1000 -1000 -1000 
-1000 -1000 -1000 -1000 -1000 -1000 -1000 -1000 -1000 
-1000 -1000 -1000 -1000 -1000 -1000 -1000 -1000 -1000 
-1000 -1000 -1000 -1000 -1000 -1000 -1000 -1000 -1000 
-1000 -1000 -1000 -1000 -1000 -1000 -1000 -1000 -1000 
-1000 -1000 -1000 -1000 -1000 -1000 -1000 -1000 -1000 
-1000 -1000 -1000 -1000 -1000 -1000 -1000 -1000 -1000 
-1000 -1000 -1000 -1000 -1000 -1000 -1000 -1000 -1000 
-1000 -1000 -1000 -1000 -1000 -1000 -1000 -1000 -1000 
-1000 -1000 -1000 -1000 -1000 -1000 -1000 -1000 -1000 
-1000 -1000 -1000 -1000 -1000 -1000 -1000 -1000 -1000 
-1000 -1000 -1000 -1000 -1000 -1000 -1000 -1000 -1000 
-1000 -1000 -1000 -1000 -1000 -1000 -1000 -1000 -1000 
-1000 -1000 -1000 -1000 -1000 -1000 -1000 -1000 -1000 
-1000 -1000 -1000 -1000 -1000 -1000 -1000 -1000 -1000 
-1000 -1000 -1000 -1000 -1000 -1000 -1000 -1000 -1000 
-1000 -1000 -1000 -1000 -1000 -1000 -1000 -1000 -1000 
-1000 -1000 -1000 -1000 -1000 -1000 -1000 -1000 -1000 
-1000 -1000 -1000 -1000 -1000 -1000 -1000 -1000 -1000 
-1000 -1000 -1000 -1000 -1000 -1000 -1000 -1000 -1000 
-1000 -1000 -1000 -1000 -1000 -1000 -1000 -1000 -1000 
-1000 -1000 -1000 -1000 -1000 -1000 -1000 -1000 -1000 
-1000 -1000 -1000 -1000 -1000 -1000 -1000 -1000 -1000 
-1000 -1000 -1000 -1000 -1000 -1000 -1000 -1000 -1000 
-1000 -1000 -1000 -1000 -1000 -1000 -1000 -1000 -1000 
-1000 -1000 -1000 -1000 -1000 -1000 -1000 -1000 -1000 
-1000 -1000 -1000 -1000 -1000 -1000 -1000 -1000 -1000 
-1000 -1000 -1000 -1000 -1000 -1000 -1000 -1000 -1000 
-1000 -1000 -1000 -1000 -1000 -1000 -1000 -1000 -1000 
-1000 -1000 -1000 -1000 -1000 -1000 -1000 -1000 -1000 
-1000 -1000 -1000 -1000 -1000 -1000 -1000 -1000 -1000 
-1000 -1000 -1000 -1000 -1000 -1000 -1000 -1000 -1000 
-1000 -1000 -1000 -1000 -1000 -1000 -1000 -1000 -1000 
-1000 -1000 -1000 -1000 -1000 -1000 -1000 -1000 -1000 
-1000 -1000 -1000 -1000 -1000 -1000 -1000 -1000 -1000 
-1000 -1000 -1000 -1000 -1000 -1000 -1000 -1000 -1000 
-1000 -1000 -1000 -1000 -1000 -1000 -1000 -1000 -1000 
-1000 -1000 -1000 -1000 -1000 -1000 -1000 -1000 -1000 
-1000 -1000 -1000 -1000 -1000 -1000 -1000 -1000 -1000 
-1000 -1000 -1000 -1000 -1000 -1000 -1000 -1000 -1000 
-1000 -1000 -1000 -1000 -1000 -1000 -1000 -1000 -1000 
-1000 -1000 -1000 -1000 -1000 -1000 -1000 -1000 -1000 
-1000 -1000 -1000 -1000 -1000 -1000 -1000 -1000 -1000 
-1000 -1000 -1000 -1000 -1000 -1000 -1000 -1000 -1000 
-1000 -1000 -1000 -1000 -1000 -1000 -1000 -1000 -1000 
-1000 -1000 -1000 -1000 -1000 -1000 -1000 -1000 -1000 
-1000 -1000 -1000 -1000 -1000 -1000 -1000 -1000 -1000 
-1000 -1000 -1000 -1000 -1000 -1000 -1000 -1000 -1000 
-1000 -1000 -1000 -1000 -1000 -1000 -1000 -1000 -1000 
-1000 -1000 -1000 -1000 -1000 -1000 -1000 -1000 -1000 
-1000 -1000 -1000 -1000 -1000 -1000 -1000 -1000 -1000 
-1000 -1000 -1000 -1000 -1000 -1000 -1000 -1000 -1000 
-1000 -1000 -1000 -1000 -1000 -1000 -1000 -1000 -1000 
-1000 -1000 -1000 -1000 -1000 -1000 -1000 -1000 -1000 
-1000 -1000 -1000 -1000 -1000 -1000 -1000 -1000 -1000 
-1000 -1000 -1000 -1000 -1000 -1000 -1000 -1000 -1000 
-1000 -1000 -1000 -1000 -1000 -1000 -1000 -1000 -1000 
-1000 -1000 -1000 -1000 -1000 -1000 -1000 -1000 -1000 
-1000 -1000 -1000 -1000 -1000 -1000 -1000 -1000 -1000 
-1000 -1000 -1000 -1000 -1000 -1000 -1000 -1000 -1000 
-1000 -1000 -1000 -1000 -1000 -1000 -1000 -1000 -1000 
-1000 -1000 -1000 -1000 -1000 -1000 -1000 -1000 -1000 
-1000 -1000 -1000 -1000 -1000 -1000 -1000 -1000 -1000 
-1000 -1000 -1000 -1000 -1000 -1000 -1000 -1000 -1000 
-1000 -1000 -1000 -1000 -1000 -1000 -1000 -1000 -1000 
-1000 -1000 -1000 -1000 -1000 -1000 -1000 -1000 -1000 
-1000 -1000 -1000 -1000 -1000 -1000 -1000 -1000 -1000 
-1000 -1000 -1000 -1000 -1000 -1000 -1000 -1000 -1000 
-1000 -1000 -1000 -1000 -1000 -1000 -1000 -1000 -1000 
-1000 -1000 -1000 -1000 -1000 -1000 -1000 -1000 -1000 
-1000 -1000 -1000 -1000 -1000 -1000 -1000 -1000 -1000 
-1000 -1000 -1000 -1000 -1000 -1000 -1000 -1000 -1000 
-1000 -1000 -1000 -1000 -1000 -1000 -1000 -1000 -1000 
-1000 -1000 -1000 -1000 -1000 -1000 -1000 -1000 -1000 
-1000 -1000 -1000 -1000 -1000 -1000 -1000 -1000 -1000 
-1000 -1000 -1000 -1000 -1000 -1000 -1000 -1000 -1000 
-1000 -1000 -1000 -1000 -1000 -1000 -1000 -1000 -1000 
-1000 -1000 -1000 -1000 -1000 -1000 -1000 -1000 -1000 
-1000 -1000 -1000 -1000 -1000 -1000 -1000 -1000 -1000 
-1000 -1000 -1000 -1000 -1000 -1000 -1000 -1000 -1000 
-1000 -1000 -1000 -1000 -1000 -1000 -1000 -1000 -1000 
-1000 -1000 -1000 -1000 -1000 -1000 -1000 -1000 -1000 
-1000 -1000 -1000 -1000 -1000 -1000 -1000 -1000 -1000 
-1000 -1000 -1000 -1000 -1000 -1000 -1000 -1000 -1000 
-1000 -1000 -1000 -1000 -1000 -1000 -1000 -1000 -1000 
-1000 -1000 -1000 -1000 -1000 -1000 -1000 -1000 -1000 
-1000 -1000 -1000 -1000 -1000 -1000 -1000 -1000 -1000 
-1000 -1000 -1000 -1000 -1000 -1000 -1000 -1000 -1000 
-1000 -1000 -1000 -1000 -1000 -1000 -1000 -1000 -1000 
-1000 -1000 -1000 -1000 -1000 -1000 -1000 -1000 -1000 
-1000 -1000 -1000 -1000 -1000 -1000 -1000 -1000 -1000 
-1000 -1000 -1000 -1000 -1000 -1000 -1000 -1000 -1000 
-1000 -1000 -1000 -1000 -1000 -1000 -1000 -1000 -1000 
-1000 -1000 -1000 -1000 -1000 -1000 -1000 -1000 -1000 
-1000 -1000 -1000 -1000 -1000 -1000 -1000 -1000 -1000 
-1000 -1000 -1000 -1000 -1000 -1000 -1000 -1000 -1000 
-1000 -1000 -1000 -1000 -1000 -1000 -1000 -1000 -1000 
-1000 -1000 -1000 -1000 -1000 -1000 -1000 -1000 -1000 
-1000 -1000 -1000 -1000 -1000 -1000 -1000 -1000 -1000 
-1000 -1000 -1000 -1000 -1000 -1000 -1000 -1000 -1000 
-1000 -1000 -1000 -1000 -1000 -1000 -1000 -1000 -1000 
-1000 -1000 -1000 -1000 -1000 -1000 -1000 -1000 -1000 
-1000 -1000 -1000 -1000 -1000 -1000 -1000 -1000 -1000 
-1000 -1000 -1000 -1000 -1000 -1000 -1000 -1000 -1000 
-1000 -1000 -1000 -1000 -1000 -1000 -1000 -1000 -1000 
-1000 -1000 -1000 -1000 -1000 -1000 -1000 -1000 -1000 
-1000 -1000 -1000 -1000 -1000 -1000 -1000 -1000 -1000 
-1000 -1000 -1000 -1000 -1000 -1000 -1000 -1000 -1000 
-1000 -1000 -1000 -1000 -1000 -1000 -1000 -1000 -1000 
-1000 -1000 -1000 -1000 -1000 -1000 -1000 -1000 -1000 
-1000 -1000 -1000 -1000 -1000 -1000 -1000 -1000 -1000 
-1000 -1000 -1000 -1000 -1000 -1000 -1000 -1000 -1000 
-1000 -1000 -1000 -1000 -1000 -1000 -1000 -1000 -1000 
-1000 -1000 -1000 -1000 -1000 -1000 -1000 -1000 -1000 
-1000 -1000 -1000 -1000 -1000 -1000 -1000 -1000 -1000 
-1000 -1000 -1000 -1000 -1000 -1000 -1000 -1000 -1000 
-1000 -1000 -1000 -1000 -1000 -1000 -1000 -1000 -1000 
-1000 -1000 -1000 -1000 -1000 -1000 -1000 -1000 -1000 
-1000 -1000 -1000 -1000 -1000 -1000 -1000 -1000 -1000 
-1000 -1000 -1000 -1000 -1000 -1000 -1000 -1000 -1000 
-1000 -1000 -1000 -1000 -1000 -1000 -1000 -1000 -1000 
-1000 -1000 -1000 -1000 -1000 -1000 -1000 -1000 -1000 
-1000 -1000 -1000 -1000 -1000 -1000 -1000 -1000 -1000 
-1000 -1000 -1000 -1000 -1000 -1000 -1000 -1000 -1000 
-1000 -1000 -1000 -1000 -1000 -1000 -1000 -1000 -1000 
-1000 -1000 -1000 -1000 -1000 -1000 -1000 -1000 -1000 
-1000 -1000 -1000 -1000 -1000 -1000 -1000 -1000 -1000 
-1000 -1000 -1000 -1000 -1000 -1000 -1000 -1000 -1000 
-1000 -1000 -1000 -1000 -1000 -1000 -1000 -1000 -1000 
-1000 -1000 -1000 -1000 -1000 -1000 -1000 -1000 -1000 
-1000 -1000 -1000 -1000 -1000 -1000 -1000 -1000 -1000 
-1000 -1000 -1000 -1000 -1000 -1000 -1000 -1000 -1000 
-1000 -1000 -1000 -1000 -1000 -1000 -1000 -1000 -1000 
-1000 -1000 -1000 -1000 -1000 -1000 -1000 -1000 -1000 
-1000 -1000 -1000 -1000 -1000 -1000 -1000 -1000 -1000 
-1000 -1000 -1000 -1000 -1000 -1000 -1000 -1000 -1000 
-1000 -1000 -1000 -1000 -1000 -1000 -1000 -1000 -1000 
-1000 -1000 -1000 -1000 -1000 -1000 -1000 -1000 -1000 
-1000 -1000 -1000 -1000 -1000 -1000 -1000 -1000 -1000 
-1000 -1000 -1000 -1000 -1000 -1000 -1000 -1000 -1000 
-1000 -1000 -1000 -1000 -1000 -1000 -1000 -1000 -1000 
-1000 -1000 -1000 -1000 -1000 -1000 -1000 -1000 -1000 
-1000 -1000 -1000 -1000 -1000 -1000 -1000 -1000 -1000 
-1000 -1000 -1000 -1000 -1000 -1000 -1000 -1000 -1000 
-1000 -1000 -1000 -1000 -1000 -1000 -1000 -1000 -1000 
-1000 -1000 -1000 -1000 -1000 -1000 -1000 -1000 -1000 
-1000 -1000 -1000 -1000 -1000 -1000 -1000 -1000 -1000 
-1000 -1000 -1000 -1000 -1000 -1000 -1000 -1000 -1000 
-1000 -1000 -1000 -1000 -1000 -1000 -1000 -1000 -1000 
-1000 -1000 -1000 -1000 -1000 -1000 -1000 -1000 -1000 
-1000 -1000 -1000 -1000 -1000 -1000 -1000 -1000 -1000 
-1000 -1000 -1000 -1000 -1000 -1000 -1000 -1000 -1000 
-1000 -1000 -1000 -1000 -1000 -1000 -1000 -1000 -1000 
-1000 -1000 -1000 -1000 -1000 -1000 -1000 -1000 -1000 
-1000 -1000 -1000 -1000 -1000 -1000 -1000 -1000 -1000 
-1000 -1000 -1000 -1000 -1000 -1000 -1000 -1000 -1000 
-1000 -1000 -1000 -1000 -1000 -1000 -1000 -1000 -1000 
-1000 -1000 -1000 -1000 -1000 -1000 -1000 -1000 -1000 
-1000 -1000 -1000 -1000 -1000 -1000 -1000 -1000 -1000 
-1000 -1000 -1000 -1000 -1000 -1000 -1000 -1000 -1000 
-1000 -1000 -1000 -1000 -1000 -1000 -1000 -1000 -1000 
-1000 -1000 -1000 -1000 -1000 -1000 -1000 -1000 -1000 
-1000 -1000 -1000 -1000 -1000 -1000 -1000 -1000 -1000 
-1000 -1000 -1000 -1000 -1000 -1000 -1000 -1000 -1000 
-1000 -1000 -1000 -1000 -1000 -1000 -1000 -1000 -1000 
-1000 -1000 -1000 -1000 -1000 -1000 -1000 -1000 -1000 
-1000 -1000 -1000 -1000 -1000 -1000 -1000 -1000 -1000 
-1000 -1000 -1000 -1000 -1000 -1000 -1000 -1000 -1000 
-1000 -1000 -1000 -1000 -1000 -1000 -1000 -1000 -1000 
-1000 -1000 -1000 -1000 -1000 -1000 -1000 -1000 -1000 
-1000 -1000 -1000 -1000 -1000 -1000 -1000 -1000 -1000 
-1000 -1000 -1000 -1000 -1000 -1000 -1000 -1000 -1000 
-1000 -1000 -1000 -1000 -1000 -1000 -1000 -1000 -1000 
-1000 -1000 -1000 -1000 -1000 -1000 -1000 -1000 -1000 
-1000 -1000 -1000 -1000 -1000 -1000 -1000 -1000 -1000 
-1000 -1000 -1000 -1000 -1000 -1000 -1000 -1000 -1000 
-1000 -1000 -1000 -1000 -1000 -1000 -1000 -1000 -1000 
-1000 -1000 -1000 -1000 -1000 -1000 -1000 -1000 -1000 
-1000 -1000 -1000 -1000 -1000 -1000 -1000 -1000 -1000 
-1000 -1000 -1000 -1000 -1000 -1000 -1000 -1000 -1000 
-1000 -1000 -1000 -1000 -1000 -1000 -1000 -1000 -1000 
-1000 -1000 -1000 -1000 -1000 -1000 -1000 -1000 -1000 
-1000 -1000 -1000 -1000 -1000 -1000 -1000 -1000 -1000 
-1000 -1000 -1000 -1000 -1000 -1000 -1000 -1000 -1000 
-1000 -1000 -1000 -1000 -1000 -1000 -1000 -1000 -1000 
-1000 -1000 -1000 -1000 -1000 -1000 -1000 -1000 -1000 
-1000 -1000 -1000 -1000 -1000 -1000 -1000 -1000 -1000 
-1000 -1000 -1000 -1000 -1000 -1000 -1000 -1000 -1000 
-1000 -1000 -1000 -1000 -1000 -1000 -1000 -1000 -1000 
-1000 -1000 -1000 -1000 -1000 -1000 -1000 -1000 -1000 
-1000 -1000 -1000 -1000 -1000 -1000 -1000 -1000 -1000 
-1000 -1000 -1000 -1000 -1000 -1000 -1000 -1000 -1000 
-1000 -1000 -1000 -1000 -1000 -1000 -1000 -1000 -1000 
-1000 -1000 -1000 -1000 -1000 -1000 -1000 -1000 -1000 
-1000 -1000 -1000 -1000 -1000 -1000 -1000 -1000 -1000 
-1000 -1000 -1000 -1000 -1000 -1000 -1000 -1000 -1000 
-1000 -1000 -1000 -1000 -1000 -1000 -1000 -1000 -1000 
-1000 -1000 -1000 -1000 -1000 -1000 -1000 -1000 -1000 
-1000 -1000 -1000 -1000 -1000 -1000 -1000 -1000 -1000 
-1000 -1000 -1000 -1000 -1000 -1000 -1000 -1000 -1000 
-1000 -1000 -1000 -1000 -1000 -1000 -1000 -1000 -1000 
-1000 -1000 -1000 -1000 -1000 -1000 -1000 -1000 -1000 
-1000 -1000 -1000 -1000 -1000 -1000 -1000 -1000 -1000 
-1000 -1000 -1000 -1000 -1000 -1000 -1000 -1000 -1000 
-1000 -1000 -1000 -1000 -1000 -1000 -1000 -1000 -1000 