# vtk DataFile Version 3.0
vtk output
ASCII
DATASET POLYDATA
POINTS 17746 float
-77.8952 9.00661 -11.6426 -77.1162 8.32644 -11.4779 -76.894 8.83935 -11.4571 
-78.8443 8.81649 -11.7191 -77.9109 8.198 -11.5773 -78.74 8.22169 -11.6318 
-76.3655 10.0371 -11.3202 -75.5533 9.51429 -11.154 -75.4943 10.2763 -11.0821 
-77.3287 9.71132 -11.5442 -76.2117 9.14173 -11.3145 -78.3977 9.86809 -11.7364 
-79.1262 9.64447 -11.793 -79.4673 8.6473 -11.6886 -80.0471 9.42157 -11.7425 
-80.9778 9.50345 -11.6019 -80.2985 8.81857 -11.6261 -81.179 9.10984 -11.4995 
-76.5018 11.1042 -11.2649 -75.5042 11.056 -11.0138 -77.4958 10.7675 -11.5014 
-78.4774 10.6197 -11.6815 -79.3945 10.5161 -11.7877 -80.2949 10.3889 -11.7531 
-81.1762 10.2398 -11.5848 -81.9108 9.94305 -11.3296 -76.0645 12.0511 -11.0914 
-75.0645 11.4423 -10.8584 -75.0918 12.0776 -10.8368 -77.163 12.077 -11.3037 
-77.8615 11.7704 -11.4393 -78.756 11.5477 -11.5879 -79.6836 11.4054 -11.6696 
-80.413 11.1906 -11.682 -81.4371 11.2687 -11.4195 -82.0345 10.8043 -11.2463 
-75.6575 12.9814 -10.9446 -74.7218 12.4988 -10.697 -74.8684 13.3411 -10.664 
-76.6504 13.1009 -11.149 -77.3617 12.8836 -11.2475 -78.2736 12.7328 -11.3495 
-79.1784 12.5105 -11.4445 -79.894 12.2102 -11.524 -81.0731 12.2463 -11.3642 
-82.2449 12.2035 -10.9414 -82.486 11.5332 -10.9071 -75.8842 14.0742 -10.8952 
-75.119 14.337 -10.5909 -76.7729 13.9128 -11.0939 -77.6575 13.7843 -11.19 
-78.578 13.6681 -11.2171 -79.5866 13.5181 -11.2336 -80.6382 13.1927 -11.2451 
-81.7655 13.264 -11.0263 -82.2377 12.8988 -10.8975 -76.1846 15.0642 -10.7992 
-75.4905 15.3154 -10.473 -77.0507 14.8776 -11.0036 -77.9772 14.6924 -11.077 
-78.7043 14.4441 -11.0979 -79.8571 14.5874 -10.9489 -80.8715 14.2596 -10.9237 
-81.8815 14.0526 -10.8146 -76.5154 15.9514 -10.6253 -75.9962 16.2148 -10.2989 
-77.3292 15.8011 -10.8277 -78.2973 15.6337 -10.8875 -79.3674 15.3702 -10.825 
-80.5193 15.4817 -10.5774 -81.2144 15.158 -10.5637 -81.9266 14.8223 -10.5761 
-76.8256 16.5952 -10.3985 -76.695 16.9072 -10.1206 -77.5464 16.5772 -10.5316 
-78.502 16.4862 -10.5905 -79.5003 16.314 -10.5375 -80.5332 16.1788 -10.3618 
-77.631 17.1635 -10.1539 -78.6693 17.1926 -10.1894 -79.6984 17.0755 -10.1763 
-80.5054 16.8433 -10.1403 -76.8362 6.02806 -11.4541 -76.164 5.40352 -11.432 
-75.906 5.93518 -11.3756 -77.8446 5.75743 -11.5216 -76.9016 5.15595 -11.4914 
-78.8124 5.60761 -11.5304 -77.8331 4.95259 -11.5185 -79.7202 5.53124 -11.4764 
-78.804 4.8857 -11.4908 -79.6594 4.98771 -11.4251 -75.0762 7.20043 -11.2086 
-74.4547 6.67897 -11.1828 -74.2294 7.29461 -11.1083 -76.1155 6.73911 -11.357 
-75.1782 6.27671 -11.2854 -77.1583 6.86178 -11.4562 -77.9781 6.62181 -11.512 
-78.9593 6.44855 -11.5422 -79.9577 6.32135 -11.5331 -80.3408 5.43517 -11.3993 
-80.9101 6.13905 -11.4587 -81.0309 5.64185 -11.3656 -74.4005 8.13916 -11.0656 
-73.6951 7.69625 -11.0363 -73.5212 8.31837 -10.9714 -75.3374 7.95133 -11.197 
-75.9006 7.52015 -11.2953 -76.9037 7.59287 -11.4227 -78.1529 7.52596 -11.5281 
-79.1876 7.33837 -11.5337 -80.243 7.24345 -11.529 -81.2863 7.1049 -11.5092 
-81.7419 6.11443 -11.3843 -82.3397 6.90958 -11.424 -83.3489 6.99336 -11.2518 
-82.6446 6.30519 -11.2938 -83.6712 6.56853 -11.0164 -73.7492 9.12316 -10.89 
-73.0009 8.72474 -10.8783 -72.8716 9.31581 -10.757 -74.4961 8.88529 -11.0102 
-75.2393 8.75487 -11.1344 -76.1939 8.26679 -11.3151 -79.3966 8.10682 -11.5882 
-80.558 8.24256 -11.5144 -81.6149 8.10726 -11.4462 -82.6409 7.94346 -11.3847 
-83.5775 7.73993 -11.2093 -84.2026 7.39599 -10.9159 -73.1868 10.0384 -10.6315 
-72.4089 9.72435 -10.5822 -72.399 10.4597 -10.3719 -74.001 9.99585 -10.7822 
-74.7076 9.5765 -10.9705 -81.8839 9.06521 -11.3502 -82.9559 9.04607 -11.1721 
-83.8376 8.69085 -11.0461 -84.7166 8.40905 -10.6248 -73.2141 10.9912 -10.4234 
-72.4772 11.3385 -10.1655 -73.8353 10.6421 -10.6382 -74.6585 10.6292 -10.8284 
-82.8127 9.90557 -11.0352 -83.5352 9.91624 -10.8292 -84.0915 9.60987 -10.7478 
-84.7207 9.28967 -10.5514 -73.2723 11.9125 -10.2719 -72.5975 12.0915 -10.0487 
-74.2116 11.586 -10.6061 -82.8686 10.8409 -10.8329 -83.4849 10.5042 -10.6676 
-73.168 12.8838 -10.1127 -72.2967 12.5706 -9.93571 -72.4765 13.3906 -9.87395 
-74.0336 12.6322 -10.4404 -82.9831 12.1483 -10.5429 -83.216 11.66 -10.4935 
-73.459 13.9934 -10.0258 -72.7904 14.3943 -9.75241 -74.1493 13.6346 -10.3443 
-82.9093 13.7231 -10.5801 -83.1726 12.865 -10.4513 -73.8501 15.0209 -9.89888 
-73.2058 15.3972 -9.59678 -74.4684 14.6582 -10.2417 -83.1145 14.8542 -10.373 
-83.9235 13.5595 -10.1966 -84.347 14.4353 -10.1515 -85.4358 14.5237 -9.87466 
-85.1169 13.7105 -9.74892 -85.9631 14.3307 -9.60703 -74.3793 16.049 -9.73318 
-73.6892 16.4006 -9.42277 -74.9604 15.6717 -10.0968 -81.5387 16.0066 -10.2173 
-82.5666 15.675 -10.2074 -83.7454 15.7701 -10.0875 -84.5257 15.4684 -10.0633 
-85.464 15.227 -9.89997 -86.2162 14.9783 -9.6265 -74.9553 17.0782 -9.52773 
-74.1969 17.3974 -9.23722 -75.7988 16.7807 -9.88206 -81.6705 16.9201 -9.90102 
-82.7518 16.6456 -9.87382 -83.8005 16.5086 -9.8736 -84.8163 16.3854 -9.85128 
-85.7063 16.1294 -9.76103 -86.4676 15.8058 -9.55048 -75.467 18.0595 -9.3078 
-74.7157 18.3485 -9.04265 -76.39 17.8428 -9.55333 -77.4594 17.6876 -9.77054 
-78.8209 17.8341 -9.78896 -79.9544 17.7884 -9.77985 -81.0957 17.5959 -9.74585 
-82.2734 17.7226 -9.56436 -83.0223 17.5105 -9.58474 -83.9892 17.3734 -9.60862 
-85.016 17.28 -9.62387 -86.129 17.1488 -9.53785 -86.7495 16.6671 -9.42222 
-75.8736 18.9259 -9.09108 -75.2173 19.0706 -8.88519 -76.8402 18.8029 -9.30408 
-77.9264 18.6534 -9.43337 -79.0738 18.575 -9.46767 -80.2082 18.5286 -9.4512 
-81.2794 18.4391 -9.42114 -82.3222 18.3727 -9.36602 -83.281 18.3104 -9.33118 
-84.1996 18.2229 -9.35304 -85.1712 18.16 -9.39307 -86.1902 18.0939 -9.37741 
-87.0975 17.3469 -9.29188 -87.2285 18.0198 -9.20198 -87.6593 17.6731 -9.06544 
-76.0111 19.5244 -8.89312 -76.4994 20.1974 -8.78948 -77.1237 19.7505 -9.05569 
-78.3054 19.5737 -9.21434 -79.4266 19.4287 -9.23494 -80.5071 19.3216 -9.20379 
-81.5338 19.2333 -9.16599 -82.5164 19.156 -9.1307 -83.465 19.0956 -9.10658 
-84.3912 19.0477 -9.11501 -85.3257 19.0102 -9.15641 -86.284 18.964 -9.17788 
-87.2317 18.8638 -9.07357 -87.9956 18.098 -8.87321 -88.0465 18.6738 -8.7726 
-88.5517 18.2729 -8.33619 -77.7042 20.7213 -8.88544 -76.9703 21.0104 -8.66241 
-78.6588 20.4837 -9.03674 -79.7465 20.2995 -9.05968 -80.8022 20.1524 -9.01233 
-81.7972 20.041 -8.95817 -82.7417 19.9581 -8.91795 -83.6568 19.8997 -8.89581 
-84.5607 19.8644 -8.90044 -85.4712 19.8441 -8.93408 -86.3953 19.8113 -8.95876 
-87.3103 19.7055 -8.87472 -88.1377 19.4505 -8.57657 -88.7514 18.9948 -8.08336 
-78.0346 21.5102 -8.71852 -77.3964 21.6518 -8.55481 -78.9654 21.3652 -8.8626 
-80.0168 21.1658 -8.899 -81.0548 20.9918 -8.84855 -82.0312 20.8595 -8.78182 
-82.951 20.7681 -8.73365 -83.838 20.7116 -8.71077 -84.7156 20.6838 -8.71532 
-85.6007 20.6756 -8.7443 -86.5011 20.6576 -8.76225 -87.4008 20.5604 -8.6729 
-88.2344 20.2871 -8.35563 -88.9006 19.7685 -7.79022 -78.0922 22.063 -8.55571 
-78.4064 22.7321 -8.44868 -79.1006 22.276 -8.64611 -80.2279 22.0376 -8.72634 
-81.2607 21.8379 -8.69313 -82.2245 21.6884 -8.62722 -83.1286 21.5885 -8.57713 
-83.9947 21.5327 -8.55527 -84.8488 21.5121 -8.56138 -85.7076 21.5114 -8.58992 
-86.582 21.5086 -8.6052 -87.4713 21.439 -8.51245 -88.3205 21.1793 -8.17985 
-89.0211 20.6344 -7.55485 -79.4623 23.3805 -8.47445 -78.5541 23.4682 -8.36454 
-80.4331 22.9565 -8.55697 -81.4293 22.7079 -8.54328 -82.3786 22.5397 -8.49 
-83.2712 22.4306 -8.44622 -84.1211 22.3688 -8.42826 -84.9523 22.3497 -8.43197 
-85.7897 22.3543 -8.45163 -86.6212 22.3412 -8.47066 -87.4762 22.3175 -8.39132 
-88.3622 22.1419 -8.07172 -89.1321 21.6112 -7.41816 -79.0406 24.2816 -8.35386 
-78.1384 23.9218 -8.29554 -78.1927 24.7207 -8.2514 -79.975 24.2469 -8.40809 
-80.6679 23.8859 -8.42922 -81.5738 23.6093 -8.40997 -82.4935 23.4248 -8.36665 
-83.3776 23.3059 -8.33179 -84.2217 23.23 -8.31688 -85.0189 23.1786 -8.31691 
-85.8252 23.1914 -8.30379 -86.6643 23.1808 -8.29229 -87.357 23.0244 -8.28905 
-88.2492 23.1728 -8.00387 -89.2266 22.762 -7.406 -79.0732 25.291 -8.25486 
-78.3363 25.6504 -8.14803 -79.9266 25.0228 -8.3191 -80.8007 24.7748 -8.32637 
-81.6685 24.5218 -8.29097 -82.5595 24.3355 -8.23936 -83.4381 24.2078 -8.20303 
-84.2879 24.1177 -8.18717 -85.1001 24.0274 -8.17216 -85.7485 23.8756 -8.17292 
-86.6287 24.1053 -8.02178 -87.6013 23.8674 -7.99234 -88.447 24.0147 -7.76601 
-88.9822 23.6882 -7.59345 -79.1261 26.1394 -8.11475 -78.5692 26.3579 -8.0264 
-79.9229 25.9221 -8.17359 -80.815 25.6604 -8.18746 -81.6862 25.4045 -8.1572 
-82.5479 25.2292 -8.07729 -83.4284 25.1079 -8.00181 -84.2903 24.9936 -7.97886 
-85.1324 24.8964 -7.95384 -86.0261 24.7433 -7.88898 -86.8666 24.9398 -7.67017 
-87.5145 24.7336 -7.66972 -88.2009 24.5382 -7.64545 -79.0991 26.7379 -7.95743 
-79.4112 27.3209 -7.74064 -79.8718 26.8061 -7.93202 -80.7971 26.5322 -7.9568 
-81.6964 26.2489 -7.92915 -82.4122 25.948 -7.90918 -83.3073 26.0224 -7.66964 
-84.2272 25.8054 -7.63777 -85.061 25.6958 -7.63039 -85.8645 25.594 -7.58799 
-86.6571 25.5669 -7.46527 -80.0948 27.4834 -7.63911 -79.8705 27.8756 -7.46102 
-80.7682 27.3068 -7.63375 -81.6698 27.0538 -7.58271 -82.6381 26.7046 -7.50577 
-83.4966 26.7481 -7.2204 -84.1694 26.5439 -7.20792 -84.9737 26.4104 -7.22319 
-85.7715 26.3262 -7.24455 -86.4284 26.1811 -7.25446 -80.6441 27.9568 -7.32502 
-81.5533 27.8007 -7.22117 -82.477 27.5294 -7.12761 -83.2165 27.2458 -7.04468 
-77.8258 1.96477 -11.9187 -77.2807 1.3473 -11.8264 -76.9408 1.83606 -11.8234 
-78.8129 1.74122 -11.9788 -78.0573 1.1712 -11.8696 -79.6617 1.58909 -11.95 
-78.9706 1.05605 -11.8796 -79.6846 1.06272 -11.8498 -41.2428 10.036 -15.9641 
-40.5915 9.32927 -15.7351 -40.3548 9.98671 -15.9011 -42.1877 9.59073 -15.8633 
-41.3019 8.9683 -15.6606 -43.1071 9.24159 -15.7581 -42.1902 8.58302 -15.5526 
-44.0403 8.94282 -15.6453 -43.1079 8.24977 -15.4394 -44.9675 8.70017 -15.502 
[...]
POINT_DATA 17746
SCALARS scalars float
LOOKUP_TABLE default
-1000 -1000 -1000 -1000 -1000 -1000 -1000 -1000 -1000 
-1000 -1000 -1000 -1000 -1000 -1000 -1000 -1000 -1000 
-1000 -1000 -1000 -1000 -1000 -1000 -1000 -1000 -1000 
-1000 -1000 -1000 -1000 -1000 -1000 -1000 -1000 -1000 
-1000 -1000 -1000 -1000 -1000 -1000 -1000 -1000 -1000 
-1000 -1000 -1000 -1000 -1000 -1000 -1000 -1000 -1000 
-1000 -1000 -1000 -1000 -1000 -1000 -1000 -1000 -1000 
-1000 -1000 -1000 -1000 -1000 -1000 -1000 -1000 -1000 
-1000 -1000 -1000 -1000 -1000 -1000 -1000 -1000 -1000 
-1000 -1000 -1000 -1000 -1000 -1000 -1000 -1000 -1000 
-1000 -1000 -1000 -1000 -1000 -1000 -1000 -1000 -1000 
-1000 -1000 -1000 -1000 -1000 -1000 -1000 -1000 -1000 
-1000 -1000 -1000 -1000 -1000 -1000 -1000 -1000 -1000 
-1000 -1000 -1000 -1000 -1000 -1000 -1000 -1000 -1000 
-1000 -1000 -1000 -1000 -1000 -1000 -1000 -1000 -1000 
-1000 -1000 -1000 -1000 -1000 -1000 -1000 -1000 -1000 
-1000 -1000 -1000 -1000 -1000 -1000 -1000 -1000 -1000 
-1000 -1000 -1000 -1000 -1000 -1000 -1000 -1000 -1000 
-1000 -1000 -1000 -1000 -1000 -1000 -1000 -1000 -1000 
-1000 -1000 -1000 -1000 -1000 -1000 -1000 -1000 -1000 
-1000 -1000 -1000 -1000 -1000 -1000 -1000 -1000 -1000 
-1000 -1000 -1000 -1000 -1000 -1000 -1000 -1000 -1000 
-1000 -1000 -1000 -1000 -1000 -1000 -1000 -1000 -1000 
-1000 -1000 -1000 -1000 -1000 -1000 -1000 -1000 -1000 
-1000 -1000 -1000 -1000 -1000 -1000 -1000 -1000 -1000 
-1000 -1000 -1000 -1000 -1000 -1000 -1000 -1000 -1000 
-1000 -1000 -1000 -1000 -1000 -1000 -1000 -1000 -1000 
-1000 -1000 -1000 -1000 -1000 -1000 -1000 -1000 -1000 
-1000 -1000 -1000 -1000 -1000 -1000 -1000 -1000 -1000 
-1000 -1000 -1000 -1000 -1000 -1000 -1000 -1000 -1000 
-1000 -1000 -1000 -1000 -1000 -1000 -1000 -1000 -1000 
-1000 -1000 -1000 -1000 -1000 -1000 -1000 -1000 -1000 
-1000 -1000 -1000 -1000 -1000 -1000 -1000 -1000 -1000 
-1000 -1000 -1000 -1000 -1000 -1000 -1000 -1000 -1000 
-1000 -1000 -1000 -1000 -1000 -1000 -1000 -1000 -1000 
-1000 -1000 -1000 -1000 -1000 -1000 -1000 -1000 -1000 
-1000 -1000 -1000 -1000 -1000 -1000 -1000 -1000 -1000 
-1000 -1000 -1000 -1000 -1000 -1000 -1000 -1000 -1000 
-1000 -1000 -1000 -1000 -1000 -1000 -1000 -1000 -1000 
-1000 -1000 -1000 -1000 -1000 -1000 -1000 -1000 -1000 
-1000 -1000 -1000 -1000 -1000 -1000 -1000 -1000 -1000 
-1000 -1000 -1000 -1000 -1000 -1000 -1000 -1000 -1000 
-1000 -1000 -1000 -1000 -1000 -1000 -1000 -1000 -1000 
-1000 -1000 -1000 -1000 -1000 -1000 -1000 -1000 -1000 
-1000 -1000 -1000 -1000 -1000 -1000 -1000 -1000 -1000 
-1000 -1000 -1000 -1000 -1000 -1000 -1000 -1000 -1000 
-1000 -1000 -1000 -1000 -1000 -1000 -1000 -1000 -1000 
-1000 -1000 -1000 -1000 -1000 -1000 -1000 -1000 -1000 
-1000 -1000 -1000 -1000 -1000 -1000 -1000 -1000 -1000 
-1000 -1000 -1000 -1000 -1000 -1000 -1000 -1000 -1000 
-1000 -1000 -1000 -1000 -1000 -1000 -1000 -1000 -1000 
-1000 -1000 -1000 -1000 -1000 -1000 -1000 -1000 -1000 
-1000 -1000 -1000 -1000 -1000 -1000 -1000 -1000 -1000 
-1000 -1000 -1000 -1000 -1000 -1000 -1000 -1000 -1000 
-1000 -1000 -1000 -1000 -1000 -1000 -1000 -1000 -1000 
-1000 -1000 -1000 -1000 -1000 -1000 -1000 -1000 -1000 
-1000 -1000 -1000 -1000 -1000 -1000 -1000 -1000 -1000 
-1000 -1000 -1000 -1000 -1000 -1000 -1000 -1000 -1000 
-1000 -1000 -1000 -1000 -1000 -1000 -1000 -1000 -1000 
-1000 -1000 -1000 -1000 -1000 -1000 -1000 -1000 -1000 
-1000 -1000 -1000 -1000 -1000 -1000 -1000 -1000 -1000 
-1000 -1000 -1000 -1000 -1000 -1000 -1000 -1000 -1000 
-1000 -1000 -1000 -1000 -1000 -1000 -1000 -1000 -1000 
-1000 -1000 -1000 -1000 -1000 -1000 -1000 -1000 -1000 
-1000 -1000 -1000 -1000 -1000 -1000 -1000 -1000 -1000 
-1000 -1000 -1000 -1000 -1000 -1000 -1000 -1000 -1000 
-1000 -1000 -1000 -1000 -1000 -1000 -1000 -1000 -1000 
-1000 -1000 -1000 -1000 -1000 -1000 -1000 -1000 -1000 
-1000 -1000 -1000 -1000 -1000 -1000 -1000 -1000 -1000 
-1000 -1000 -1000 -1000 -1000 -1000 -1000 -1000 -1000 
-1000 -1000 -1000 -1000 -1000 -1000 -1000 -1000 -1000 
-1000 -1000 -1000 -1000 -1000 -1000 -1000 -1000 -1000 
-1000 -1000 -1000 -1000 -1000 -1000 -1000 -1000 -1000 
-1000 -1000 -1000 -1000 -1000 -1000 -1000 -1000 -1000 
-1000 -1000 -1000 -1000 -1000 -1000 -1000 -1000 -1000 
-1000 -1000 -1000 -1000 -1000 -1000 -1000 -1000 -1000 
-1000 -1000 -1000 -1000 -1000 -1000 -1000 -1000 -1000 
-1000 -1000 -1000 -1000 -1000 -1000 -1000 -1000 -1000 
-1000 -1000 -1000 -1000 -1000 -1000 -1000 -1000 -1000 
-1000 -1000 -1000 -1000 -1000 -1000 -1000 -1000 -1000 
-1000 -1000 -1000 -1000 -1000 -1000 -1000 -1000 -1000 
-1000 -1000 -1000 -1000 -1000 -1000 -1000 -1000 -1000 
-1000 -1000 -1000 -1000 -1000 -1000 -1000 -1000 -1000 
-1000 -1000 -1000 -1000 -1000 -1000 -1000 -1000 -1000 
-1000 -1000 -1000 -1000 -1000 -1000 -1000 -1000 -1000 
-1000 -1000 -1000 -1000 -1000 -1000 -1000 -1000 -1000 
-1000 -1000 -1000 -1000 -1000 -1000 -1000 -1000 -1000 
-1000 -1000 -1000 -1000 -1000 -1000 -1000 -1000 -1000 
-1000 -1000 -1000 -1000 -1000 -1000 -1000 -1000 -1000 
-1000 -1000 -1000 -1000 -1000 -1000 -1000 -1000 -1000 
-1000 -1000 -1000 -1000 -1000 -1000 -1000 -1000 -1000 
-1000 -1000 -1000 -1000 -1000 -1000 -1000 -1000 -1000 
-1000 -1000 -1000 -1000 -1000 -1000 -1000 -1000 -1000 
-1000 -1000 -1000 -1000 -1000 -1000 -1000 -1000 -1000 
-1000 -1000 -1000 -1000 -1000 -1000 -1000 -1000 -1000 
-1000 -1000 -1000 -1000 -1000 -1000 -1000 -1000 -1000 
-1000 -1000 -1000 -1000 -1000 -1000 -1000 -1000 -1000 
-1000 -1000 -1000 -1000 -1000 -1000 -1000 -1000 -1000 
-1000 -1000 -1000 -1000 -1000 -1000 -1000 -1000 -1000 
-1000 -1000 -1000 -1000 -1000 -1000 -1000 -1000 -1000 
-1000 -1000 -1000 -1000 -1000 -1000 -1000 -1000 -1000 
-1000 -1000 -1000 -1000 -1000 -1000 -1000 -1000 -1000 
-1000 -1000 -1000 -1000 -1000 -1000 -1000 -1000 -1000 
-1000 -1000 -1000 -1000 -1000 -1000 -1000 -1000 -1000 
-1000 -1000 -1000 -1000 -1000 -1000 -1000 -1000 -1000 
-1000 -1000 -1000 -1000 -1000 -1000 -1000 -1000 -1000 
-1000 -1000 -1000 -1000 -1000 -1000 -1000 -1000 -1000 
-1000 -1000 -1000 -1000 -1000 -1000 -1000 -1000 -1000 
-1000 -1000 -1000 -1000 -1000 -1000 -1000 -1000 -1000 
-1000 -1000 -1000 -1000 -1000 -1000 -1000 -1000 -1000 
-1000 -1000 -1000 -1000 -1000 -1000 -1000 -1000 -1000 
-1000 -1000 -1000 -1000 -1000 -1000 -1000 -1000 -1000 
-1000 -1000 -1000 -1000 -1000 -1000 -1000 -1000 -1000 
-1000 -1000 -1000 -1000 -1000 -1000 -1000 -1000 -1000 
-1000 -1000 -1000 -1000 -1000 -1000 -1000 -1000 -1000 
-1000 -1000 -1000 -1000 -1000 -1000 -1000 -1000 -1000 
-1000 -1000 -1000 -1000 -1000 -1000 -1000 -1000 -1000 
-1000 -1000 -1000 -1000 -1000 -1000 -1000 -1000 -1000 
-1000 -1000 -1000 -1000 -1000 -1000 -1000 -1000 -1000 
-1000 -1000 -1000 -1000 -1000 -1000 -1000 -1000 -1000 
-1000 -1000 -1000 -1000 -1000 -1000 -1000 -1000 -1000 
-1000 -1000 -1000 -1000 -1000 -1000 -1000 -1000 -1000 
-1000 -1000 -1000 -1000 -1000 -1000 -1000 -1000 -1000 
-1000 -1000 -1000 -1000 -1000 -1000 -1000 -1000 -1000 
-1000 -1000 -1000 -1000 -1000 -1000 -1000 -1000 -1000 
-1000 -1000 -1000 -1000 -1000 -1000 -1000 -1000 -1000 
-1000 -1000 -1000 -1000 -1000 -1000 -1000 -1000 -1000 
-1000 -1000 -1000 -1000 -1000 -1000 -1000 -1000 -1000 
-1000 -1000 -1000 -1000 -1000 -1000 -1000 -1000 -1000 
-1000 -1000 -1000 -1000 -1000 -1000 -1000 -1000 -1000 
-1000 -1000 -1000 -1000 -1000 -1000 -1000 -1000 -1000 
-1000 -1000 -1000 -1000 -1000 -1000 -1000 -1000 -1000 
-1000 -1000 -1000 -1000 -1000 -1000 -1000 -1000 -1000 
-1000 -1000 -1000 -1000 -1000 -1000 -1000 -1000 -1000 
-1000 -1000 -1000 -1000 -1000 -1000 -1000 -1000 -1000 
-1000 -1000 -1000 -1000 -1000 -1000 -1000 -1000 -1000 
-1000 -1000 -1000 -1000 -1000 -1000 -1000 -1000 -1000 
-1000 -1000 -1000 -1000 -1000 -1000 -1000 -1000 -1000 
-1000 -1000 -1000 -1000 -1000 -1000 -1000 -1000 -1000 
-1000 -1000 -1000 -1000 -1000 -1000 -1000 -1000 -1000 
-1000 -1000 -1000 -1000 -1000 -1000 -1000 -1000 -1000 
-1000 -1000 -1000 -1000 -1000 -1000 -1000 -1000 -1000 
-1000 -1000 -1000 -1000 -1000 -1000 -1000 -1000 -1000 
-1000 -1000 -1000 -1000 -1000 -1000 -1000 -1000 -1000 
-1000 -1000 -1000 -1000 -1000 -1000 -1000 -1000 -1000 
-1000 -1000 -1000 -1000 -1000 -1000 -1000 -1000 -1000 
-1000 -1000 -1000 -1000 -1000 -1000 -1000 -1000 -1000 
-1000 -1000 -1000 -1000 -1000 -1000 -1000 -1000 -1000 
-1000 -1000 -1000 -1000 -1000 -1000 -1000 -1000 -1000 
-1000 -1000 -1000 -1000 -1000 -1000 -1000 -1000 -1000 
-1000 -1000 -1000 -1000 -1000 -1000 -1000 -1000 -1000 
-1000 -1000 -1000 -1000 -1000 -1000 -1000 -1000 -1000 
-1000 -1000 -1000 -1000 -1000 -1000 -1000 -1000 -1000 
-1000 -1000 -1000 -1000 -1000 -1000 -1000 -1000 -1000 
-1000 -1000 -1000 -1000 -1000 -1000 -1000 -1000 -1000 
-1000 -1000 -1000 -1000 -1000 -1000 -1000 -1000 -1000 
-1000 -1000 -1000 -1000 -1000 -1000 -1000 -1000 -1000 
-1000 -1000 -1000 -1000 -1000 -1000 -1000 -1000 -1000 
-1000 -1000 -1000 -1000 -1000 -1000 -1000 -1000 -1000 
-1000 -1000 -1000 -1000 -1000 -1000 -1000 -1000 -1000 
-1000 -1000 -1000 -1000 -1000 -1000 -1000 -1000 -1000 
-1000 -1000 -1000 -1000 -1000 -1000 -1000 -1000 -1000 
-1000 -1000 -1000 -1000 -1000 -1000 -1000 -1000 -1000 
-1000 -1000 -1000 -1000 -1000 -1000 -1000 -1000 -1000 
-1000 -1000 -1000 -1000 -1000 -1000 -1000 -1000 -1000 
-1000 -1000 -1000 -1000 -1000 -1000 -1000 -1000 -1000 
-1000 -1000 -1000 -1000 -1000 -1000 -1000 -1000 -1000 
-1000 -1000 -1000 -1000 -1000 -1000 -1000 -1000 -1000 
-1000 -1000 -1000 -1000 -1000 -1000 -1000 -1000 -1000 
-1000 -1000 -1000 -1000 -1000 -1000 -1000 -1000 -1000 
-1000 -1000 -1000 -1000 -1000 -1000 -1000 -1000 -1000 
-1000 -1000 -1000 -1000 -1000 -1000 -1000 -1000 -1000 
-1000 -1000 -1000 -1000 -1000 -1000 -1000 -1000 -1000 
-1000 -1000 -1000 -1000 -1000 -1000 -1000 -1000 -1000 
-1000 -1000 -1000 -1000 -1000 -1000 -1000 -1000 -1000 
-1000 -1000 -1000 -1000 -1000 -1000 -1000 -1000 -1000 
-1000 -1000 -1000 -1000 -1000 -1000 -1000 -1000 -1000 
-1000 -1000 -1000 -1000 -1000 -1000 -1000 -1000 -1000 
-1000 -1000 -1000 -1000 -1000 -1000 -1000 -1000 -1000 
-1000 -1000 -1000 -1000 -1000 -1000 -1000 -1000 -1000 
-1000 -1000 -1000 -1000 -1000 -1000 -1000 -1000 -1000 
-1000 -1000 -1000 -1000 -1000 -1000 -1000 -1000 -1000 
-1000 -1000 -1000 -1000 -1000 -1000 -1000 -1000 -1000 
-1000 -1000 -1000 -1000 -1000 -1000 -1000 -1000 -1000 
-1000 -1000 -1000 -1000 -1000 -1000 -1000 -1000 -1000 
-1000 -1000 -1000 -1000 -1000 -1000 -1000 -1000 -1000 
-1000 -1000 -1000 -1000 -1000 -1000 -1000 -1000 -1000 
-1000 -1000 -1000 -1000 -1000 -1000 -1000 -1000 -1000 
-1000 -1000 -1000 -1000 -1000 -1000 -1000 -1000 -1000 
-1000 -1000 -1000 -1000 -1000 -1000 -1000 -1000 -1000 
-1000 -1000 -1000 -1000 -1000 -1000 -1000 -1000 -1000 
-1000 -1000 -1000 -1000 -1000 -1000 -1000 -1000 -1000 
-1000 -1000 -1000 -1000 -1000 -1000 -1000 -1000 -1000 
-1000 -1000 -1000 -1000 -1000 -1000 -1000 -1000 -1000 
-1000 -1000 -1000 -1000 -1000 -1000 -1000 -1000 -1000 
-1000 -1000 -1000 -1000 -1000 -1000 -1000 -1000 -1000 
-1000 -1000 -1000 -1000 -1000 -1000 -1000 -1000 -1000 
-1000 -1000 -1000 -1000 -1000 -1000 -1000 -1000 -1000 
-1000 -1000 -1000 -1000 -1000 -1000 -1000 -1000 -1000 
-1000 -1000 -1000 -1000 -1000 -1000 -1000 -1000 -1000 
-1000 -1000 -1000 -1000 -1000 -1000 -1000 -1000 -1000 
-1000 -1000 -1000 -1000 -1000 -1000 -1000 -1000 -1000 
-1000 -1000 -1000 -1000 -1000 -1000 -1000 -1000 -1000 
-1000 -1000 -1000 -1000 -1000 -1000 -1000 -1000 -1000 
-1000 -1000 -1000 -1000 -1000 -1000 -1000 -1000 -1000 
-1000 -1000 -1000 -1000 -1000 -1000 -1000 -1000 -1000 
-1000 -1000 -1000 -1000 -1000 -1000 -1000 -1000 -1000 
-1000 -1000 -1000 -1000 -1000 -1000 -1000 -1000 -1000 
-1000 -1000 -1000 -1000 -1000 -1000 -1000 -1000 -1000 
-1000 -1000 -1000 -1000 -1000 -1000 -1000 -1000 -1000 
-1000 -1000 -1000 -1000 -1000 -1000 -1000 -1000 -1000 
-1000 -1000 -1000 -1000 -1000 -1000 -1000 -1000 -1000 
-1000 -1000 -1000 -1000 -1000 -1000 -1000 -1000 -1000 
-1000 -1000 -1000 -1000 -1000 -1000 -1000 -1000 -1000 
-1000 -1000 -1000 -1000 -1000 -1000 -1000 -1000 -1000 
-1000 -1000 -1000 -1000 -1000 -1000 -1000 -1000 -1000 
-1000 -1000 -1000 -1000 -1000 -1000 -1000 -1000 -1000 
-1000 -1000 -1000 -1000 -1000 -1000 -1000 -1000 -1000 
-1000 -1000 -1000 -1000 -1000 -1000 -1000 -1000 -1000 
-1000 -1000 -1000 -1000 -1000 -1000 -1000 -1000 -1000 
-1000 -1000 -1000 -1000 -1000 -1000 -1000 -1000 -1000 
-1000 -1000 -1000 -1000 -1000 -1000 -1000 -1000 -1000 
-1000 -1000 -1000 -1000 -1000 -1000 -1000 -1000 -1000 
-1000 -1000 -1000 -1000 -1000 -1000 -1000 -1000 -1000 
-1000 -1000 -1000 -1000 -1000 -1000 -1000 -1000 -1000 
-1000 -1000 -1000 -1000 -1000 -1000 -1000 -1000 -1000 
-1000 -1000 -1000 -1000 -1000 -1000 -1000 -1000 -1000 
-1000 -1000 -1000 -1000 -1000 -1000 -1000 -1000 -1000 
-1000 -1000 -1000 -1000 -1000 -1000 -1000 -1000 -1000 
-1000 -1000 -1000 -1000 -1000 -1000 -1000 -1000 -1000 
-1000 -1000 -1000 -1000 -1000 -1000 -1000 -1000 -1000 
-1000 -1000 -1000 -1000 -1000 -1000 -1000 -1000 -1000 
-1000 -1000 -1000 -1000 -1000 -1000 -1000 -1000 -1000 
-1000 -1000 -1000 -1000 -1000 -1000 -1000 -1000 -1000 
-1000 -1000 -1000 -1000 -1000 -1000 -1000 -1000 -1000 
-1000 -1000 -1000 -1000 -1000 -1000 -1000 -1000 -1000 
-1000 -1000 -1000 -1000 -1000 -1000 -1000 -1000 -1000 
-1000 -1000 -1000 -1000 -1000 -1000 -1000 -1000 -1000 
-1000 -1000 -1000 -1000 -1000 -1000 -1000 -1000 -1000 
-1000 -1000 -1000 -1000 -1000 -1000 -1000 -1000 -1000 
-1000 -1000 -1000 -1000 -1000 -1000 -1000 -1000 -1000 
-1000 -1000 -1000 -1000 -1000 -1000 -1000 -1000 -1000 
-1000 -1000 -1000 -1000 -1000 -1000 -1000 -1000 -1000 
-1000 -1000 -1000 -1000 -1000 -1000 -1000 -1000 -1000 
-1000 -1000 -1000 -1000 -1000 -1000 -1000 -1000 -1000 
-1000 -1000 -1000 -1000 -1000 -1000 -1000 -1000 -1000 
-1000 -1000 -1000 -1000 -1000 -1000 -1000 -1000 -1000 
-1000 -1000 -1000 -1000 -1000 -1000 -1000 -1000 -1000 
-1000 -1000 -1000 -1000 -1000 -1000 -1000 -1000 -1000 
-1000 -1000 -1000 -1000 -1000 -1000 -1000 -1000 -1000 
-1000 -1000 -1000 -1000 -1000 -1000 -1000 -1000 -1000 
-1000 -1000 -1000 -1000 -1000 -1000 -1000 -1000 -1000 
-1000 -1000 -1000 -1000 -1000 -1000 -1000 -1000 -1000 
-1000 -1000 -1000 -1000 -1000 -1000 -1000 -1000 -1000 
-1000 -1000 -1000 -1000 -1000 -1000 -1000 -1000 -1000 
-1000 -1000 -1000 -1000 -1000 -1000 -1000 -1000 -1000 
-1000 -1000 -1000 -1000 -1000 -1000 -1000 -1000 -1000 
-1000 -1000 -1000 -1000 -1000 -1000 -1000 -1000 -1000 
-1000 -1000 -1000 -1000 -1000 -1000 -1000 -1000 -1000 
-1000 -1000 -1000 -1000 -1000 -1000 -1000 -1000 -1000 
-1000 -1000 -1000 -1000 -1000 -1000 -1000 -1000 -1000 
-1000 -1000 -1000 -1000 -1000 -1000 -1000 -1000 -1000 
-1000 -1000 -1000 -1000 -1000 -1000 -1000 -1000 -1000 
-1000 -1000 -1000 -1000 -1000 -1000 -1000 -1000 -1000 
-1000 -1000 -1000 -1000 -1000 -1000 -1000 -1000 -1000 
-1000 -1000 -1000 -1000 -1000 -1000 -1000 -1000 -1000 
-1000 -1000 -1000 -1000 -1000 -1000 -1000 -1000 -1000 
-1000 -1000 -1000 -1000 -1000 -1000 -1000 -1000 -1000 
-1000 -1000 -1000 -1000 -1000 -1000 -1000 -1000 -1000 
-1000 -1000 -1000 -1000 -1000 -1000 -1000 -1000 -1000 
-1000 -1000 -1000 -1000 -1000 -1000 -1000 -1000 -1000 
-1000 -1000 -1000 -1000 -1000 -1000 -1000 -1000 -1000 
-1000 -1000 -1000 -1000 -1000 -1000 -1000 -1000 -1000 
-1000 -1000 -1000 -1000 -1000 -1000 -1000 -1000 -1000 
-1000 -1000 -1000 -1000 -1000 -1000 -1000 -1000 -1000 
-1000 -1000 -1000 -1000 -1000 -1000 -1000 -1000 -1000 
-1000 -1000 -1000 -1000 -1000 -1000 -1000 -1000 -1000 
-1000 -1000 -1000 -1000 -1000 -1000 -1000 -1000 -1000 
-1000 -1000 -1000 -1000 -1000 -1000 -1000 -1000 -1000 
-1000 -1000 -1000 -1000 -1000 -1000 -1000 -1000 -1000 
-1000 -1000 -1000 -1000 -1000 -1000 -1000 -1000 -1000 
-1000 -1000 -1000 -1000 -1000 -1000 -1000 -1000 -1000 
-1000 -1000 -1000 -1000 -1000 -1000 -1000 -1000 -1000 
-1000 -1000 -1000 -1000 -1000 -1000 -1000 -1000 -1000 
-1000 -1000 -1000 -1000 -1000 -1000 -1000 -1000 -1000 
-1000 -1000 -1000 -1000 -1000 -1000 -1000 -1000 -1000 
-1000 -1000 -1000 -1000 -1000 -1000 -1000 -1000 -1000 
-1000 -1000 -1000 -1000 -1000 -1000 -1000 -1000 -1000 
-1000 -1000 -1000 -1000 -1000 -1000 -1000 -1000 -1000 
-1000 -1000 -1000 -1000 -1000 -1000 -1000 -1000 -1000 
-1000 -1000 -1000 -1000 -1000 -1000 -1000 -1000 -1000 
-1000 -1000 -1000 -1000 -1000 -1000 -1000 -1000 -1000 
-1000 -1000 -1000 -1000 -1000 -1000 -1000 -1000 -1000 
-1000 -1000 -1000 -1000 -1000 -1000 -1000 -1000 -1000 
-1000 -1000 -1000 -1000 -1000 -1000 -1000 -1000 -1000 
-1000 -1000 -1000 -1000 -1000 -1000 -1000 -1000 -1000 
-1000 -1000 -1000 -1000 -1000 -1000 -1000 -1000 -1000 
-1000 -1000 -1000 -1000 -1000 -1000 -1000 -1000 -1000 
-1000 -1000 -1000 -1000 -1000 -1000 -1000 -1000 -1000 
-1000 -1000 -1000 -1000 -1000 -1000 -1000 -1000 -1000 
-1000 -1000 -1000 -1000 -1000 -1000 -1000 -1000 -1000 
-1000 -1000 -1000 -1000 -1000 -1000 -1000 -1000 -1000 
-1000 -1000 -1000 -1000 -1000 -1000 -1000 -1000 -1000 
-1000 -1000 -1000 -1000 -1000 -1000 -1000 -1000 -1000 
-1000 -1000 -1000 -1000 -1000 -1000 -1000 -1000 -1000 
-1000 -1000 -1000 -1000 -1000 -1000 -1000 -1000 -1000 
-1000 -1000 -1000 -1000 -1000 -1000 -1000 -1000 -1000 
-1000 -1000 -1000 -1000 -1000 -1000 -1000 -1000 -1000 
-1000 -1000 -1000 -1000 -1000 -1000 -1000 -1000 -1000 
-1000 -1000 -1000 -1000 -1000 -1000 -1000 -1000 -1000 
-1000 -1000 -1000 -1000 -1000 -1000 -1000 -1000 -1000 
-1000 -1000 -1000 -1000 -1000 -1000 -1000 -1000 -1000 
-1000 -1000 -1000 -1000 -1000 -1000 -1000 -1000 -1000 
-1000 -1000 -1000 -1000 -1000 -1000 -1000 -1000 -1000 
-1000 -1000 -1000 -1000 -1000 -1000 -1000 -1000 -1000 
-1000 -1000 -1000 -1000 -1000 -1000 -1000 -1000 -1000 
-1000 -1000 -1000 -1000 -1000 -1000 -1000 -1000 -1000 
-1000 -1000 -1000 -1000 -1000 -1000 -1000 -1000 -1000 
-1000 -1000 -1000 -1000 -1000 -1000 -1000 -1000 -1000 
-1000 -1000 -1000 -1000 -1000 -1000 -1000 -1000 -1000 
-1000 -1000 -1000 -1000 -1000 -1000 -1000 -1000 -1000 
-1000 -1000 -1000 -1000 -1000 -1000 -1000 -1000 -1000 
-1000 -1000 -1000 -1000 -1000 -1000 -1000 -1000 -1000 
-1000 -1000 -1000 -1000 -1000 -1000 -1000 -1000 -1000 
-1000 -1000 -1000 -1000 -1000 -1000 -1000 -1000 -1000 
-1000 -1000 -1000 -1000 -1000 -1000 -1000 -1000 -1000 
-1000 -1000 -1000 -1000 -1000 -1000 -1000 -1000 -1000 
-1000 -1000 -1000 -1000 -1000 -1000 -1000 -1000 -1000 
-1000 -1000 -1000 -1000 -1000 -1000 -1000 -1000 -1000 
-1000 -1000 -1000 -1000 -1000 -1000 -1000 -1000 -1000 
-1000 -1000 -1000 -1000 -1000 -1000 -1000 -1000 -1000 
-1000 -1000 -1000 -1000 -1000 -1000 -1000 -1000 -1000 
-1000 -1000 -1000 -1000 -1000 -1000 -1000 -1000 -1000 
-1000 -1000 -1000 -1000 -1000 -1000 -1000 -1000 -1000 
-1000 -1000 -1000 -1000 -1000 -1000 -1000 -1000 -1000 
-1000 -1000 -1000 -1000 -1000 -1000 -1000 -1000 -1000 
-1000 -1000 -1000 -1000 -1000 -1000 -1000 -1000 -1000 
-1000 -1000 -1000 -1000 -1000 -1000 -1000 -1000 -1000 
-1000 -1000 -1000 -1000 -1000 -1000 -1000 -1000 -1000 
-1000 -1000 -1000 -1000 -1000 -1000 -1000 -1000 -1000 
-1000 -1000 -1000 -1000 -1000 -1000 -1000 -1000 -1000 
-1000 -1000 -1000 -1000 -1000 -1000 -1000 -1000 -1000 
-1000 -1000 -1000 -1000 -1000 -1000 -1000 -1000 -1000 
-1000 -1000 -1000 -1000 -1000 -1000 -1000 -1000 -1000 
-1000 -1000 -1000 -1000 -1000 -1000 -1000 -1000 -1000 
-1000 -1000 -1000 -1000 -1000 -1000 -1000 -1000 -1000 
-1000 -1000 -1000 -1000 -1000 -1000 -1000 -1000 -1000 
-1000 -1000 -1000 -1000 -1000 -1000 -1000 -1000 -1000 
-1000 -1000 -1000 -1000 -1000 -1000 -1000 -1000 -1000 
-1000 -1000 -1000 -1000 -1000 -1000 -1000 -1000 -1000 
-1000 -1000 -1000 -1000 -1000 -1000 -1000 -1000 -1000 
-1000 -1000 -1000 -1000 -1000 -1000 -1000 -1000 -1000 
-1000 -1000 -1000 -1000 -1000 -1000 -1000 -1000 -1000 
-1000 -1000 -1000 -1000 -1000 -1000 -1000 -1000 -1000 
-1000 -1000 -1000 -1000 -1000 -1000 -1000 -1000 -1000 
-1000 -1000 -1000 -1000 -1000 -1000 -1000 -1000 -1000 