# vtk DataFile Version 3.0
vtk output
ASCII
DATASET POLYDATA
POINTS 13638 float
-75.3742 -9.32435 -67.2322 -75.5498 -9.20834 -67.2537 -75.5116 -9.21402 -67.2057 
-75.5527 -9.20588 -67.2541 -76.2559 -8.67297 -67.3447 -76.2145 -8.68442 -67.1904 
-76.6649 -8.27591 -67.4032 -77.5612 -7.14169 -67.5486 -77.6271 -6.99229 -67.5637 
-77.5456 -7.11297 -67.3804 -77.2117 -7.64112 -67.4881 -62.8823 -9.66394 -66.2255 
-63.0933 -9.785 -66.2341 -63.1704 -9.89386 -66.0551 -63.5959 -9.95365 -66.2626 
-63.7568 -10.0014 -66.2721 -64.4513 -10.181 -66.315 -64.5538 -10.3136 -65.9564 
-64.8419 -10.3156 -66.3369 -65.0774 -10.4699 -66.1062 -65.0321 -10.3867 -66.3472 
-65.6445 -10.6528 -66.3779 -65.8666 -10.7284 -66.3904 -65.8425 -10.7972 -66.1291 
-66.5005 -10.9499 -66.4257 -66.6828 -11.1109 -66.0405 -67.2216 -11.1161 -66.4716 
-67.4879 -11.1687 -66.4891 -67.7026 -11.273 -66.3148 -67.4293 -11.3718 -65.7366 
-66.9453 -11.0512 -66.4541 -68.1131 -11.4436 -65.9477 -67.7499 -11.2219 -66.5062 
-69.3596 -11.3894 -66.622 -69.4335 -11.4199 -66.521 -68.8562 -11.3772 -66.5831 
-68.7893 -11.4523 -66.2353 -68.4861 -11.3256 -66.5574 -68.0596 -11.2788 -66.5268 
-69.4559 -11.5425 -65.7485 -69.4265 -11.3895 -66.6273 -69.6654 -11.3582 -66.6481 
-70.1166 -11.3011 -66.6875 -70.2416 -11.2876 -66.6982 -70.5298 -11.4246 -65.8217 
-71.3037 -11.0933 -66.7947 -71.5195 -11.0511 -66.8145 -71.8481 -11.0453 -66.5833 
-71.3133 -11.2546 -66.1275 -71.191 -11.1082 -66.7849 -71.8702 -11.1788 -65.8687 
-71.9431 -10.964 -66.8536 -72.6544 -10.7613 -66.9231 -72.6673 -10.7579 -66.9243 
-72.672 -10.7561 -66.9248 -72.8867 -10.765 -66.0286 -73.7033 -10.322 -67.0347 
-73.7279 -10.3088 -67.0375 -73.849 -10.2422 -66.1766 -74.6661 -9.79001 -67.1457 
-74.6773 -9.78267 -67.1471 -74.7601 -9.6688 -66.3095 -75.6284 -9.08329 -66.4136 
-76.456 -8.4559 -66.5227 -76.923 -8.02203 -67.4402 -76.9921 -7.95528 -67.4501 
-77.2198 -7.71828 -66.5645 -77.9494 -6.192 -67.2585 -77.8162 -6.89545 -66.4867 
-77.9151 -6.26939 -67.6341 -78.1226 -5.26242 -67.7169 -78.1704 -4.54784 -67.7679 
-78.1711 -5.26945 -67.1203 -78.0205 -5.78799 -67.6742 -77.959 -2.73389 -67.8709 
-77.936 -2.56617 -67.8802 -77.8968 -2.75979 -67.6924 -78.1088 -3.59895 -67.8256 
-78.0986 -3.52857 -67.8295 -78.0365 -3.63241 -67.729 -78.136 -3.94791 -67.8047 
-59.7575 -6.76203 -66.1708 -60.0502 -6.94918 -66.1815 -60.1042 -7.07029 -66.0586 
-60.1384 -7.01768 -66.1839 -60.9068 -7.7082 -66.1989 -61.0023 -7.82749 -66.1985 
-60.9993 -7.85813 -66.0143 -60.7681 -7.55995 -66.1977 -61.4471 -8.34546 -66.1994 
-61.7342 -8.67996 -66.2 -61.7259 -8.66173 -65.7269 -62 -8.97182 -66.2016 
-62.4959 -9.41346 -66.2116 -62.4594 -9.42361 -65.459 -63.49 -10.0987 -65.7037 
-63.2231 -10.0282 -65.3273 -62.6362 -9.52609 -66.2152 -63.8597 -10.3532 -65.2135 
-63.676 -9.9816 -66.2671 -65.0291 -10.5707 -65.4712 -64.5556 -10.5708 -65.1191 
-63.7081 -9.99145 -66.2689 -63.6918 -9.98707 -66.2679 -65.2435 -10.8049 -64.9052 
-65.7083 -10.9045 -65.1902 -66.9776 -11.3543 -65.4207 -66.5089 -11.2275 -65.2457 
-67.2979 -11.5478 -64.8075 -68.6408 -11.5973 -65.5312 -68.0583 -11.6222 -65.1431 
-68.7998 -11.7231 -64.84 -69.7604 -11.6939 -64.7416 -70.5893 -11.5826 -65.0518 
-71.0851 -11.4258 -65.5442 -71.1999 -11.4935 -64.9484 -72.0685 -11.1911 -65.0201 
-73.0217 -10.7145 -65.164 -73.9446 -10.159 -65.3179 -74.8492 -9.57098 -65.4695 
-75.7444 -8.96079 -65.6004 -76.6207 -8.30006 -65.6749 -77.4673 -7.51437 -65.6144 
-78.2267 -6.01295 -66.1714 -78.0201 -6.77212 -65.7815 -78.2383 -4.45049 -66.998 
-78.3376 -5.1131 -66.434 -78.1755 -4.43579 -67.7757 -77.7932 -1.95322 -67.6401 
-78.0141 -2.65023 -66.8929 -77.8411 -1.93082 -67.9146 -78.2067 -3.64252 -66.7315 
-77.8021 -1.18418 -67.9609 -77.7886 -0.557263 -68.0012 -77.8162 -1.22552 -67.3539 
-77.8221 -1.62225 -67.9335 -77.7839 0.35303 -68.0609 -77.7843 0.486399 -68.0697 
-77.7289 0.33561 -67.9294 -77.7798 0.0186066 -68.0385 -57.9293 -5.22319 -66.1283 
-58.0063 -5.29764 -66.1294 -58.0092 -5.33542 -65.9945 -57.7384 -5.00717 -66.1275 
-58.4639 -5.75888 -66.1351 -58.7534 -5.98352 -66.143 -58.7116 -6.03415 -65.7076 
-59.0778 -6.26967 -66.1497 -59.5717 -6.63533 -66.1645 -59.442 -6.71256 -65.4162 
-60.6202 -7.56462 -65.6448 -60.2098 -7.36987 -65.1907 -59.6118 -6.66721 -66.1656 
-61.1436 -8.06592 -65.2451 -60.9552 -8.04856 -64.7585 -61.4599 -8.46116 -64.6343 
-60.4115 -7.22634 -66.1917 -61.6327 -8.53092 -65.0727 -62.3826 -9.31136 -64.5835 
-63.1721 -10.0429 -64.3834 -64.2415 -10.6345 -64.6841 -63.942 -10.5801 -64.3192 
-64.6119 -10.8799 -64.2074 -65.7105 -11.0896 -64.4253 -65.1836 -10.9896 -64.3014 
-65.8145 -11.3373 -63.5921 -66.5637 -11.4343 -64.1633 -67.4577 -11.7302 -63.9771 
-68.0681 -11.7739 -64.3073 -68.7906 -11.8701 -63.8187 -69.7024 -11.8517 -63.7198 
-70.4458 -11.7029 -64.3247 -71.1558 -11.5856 -64.0076 -72.1823 -11.1771 -64.1247 
-73.1284 -10.6816 -64.2606 -74.0611 -10.1232 -64.4428 -74.9786 -9.52226 -64.6398 
-75.877 -8.9 -64.7761 -76.7402 -8.2507 -64.8251 -77.4086 -7.67406 -64.7353 
-78.2185 -6.45381 -65.524 -77.983 -6.93263 -65.0356 -78.3824 -4.55369 -66.2894 
-78.4415 -5.2041 -65.7372 -78.36 -6.04078 -65.1128 -77.9274 -1.99193 -66.9607 
-78.096 -2.41813 -66.3648 -78.2872 -3.24937 -65.8509 -78.4456 -4.31539 -65.7022 
-77.8206 -0.382699 -67.2657 -77.983 -1.00812 -66.5539 -77.7842 -0.396266 -68.0114 
-78.0373 -1.7606 -66.4246 -77.7679 1.08624 -67.7051 -77.8779 0.328494 -66.9203 
-77.7897 1.07586 -68.1091 -77.7924 2.41932 -68.1979 -77.751 2.46195 -68.1703 
-77.7957 1.7836 -68.1562 -77.8172 1.82653 -67.487 -77.7928 2.46965 -68.2013 
-77.7906 1.50822 -68.1377 -77.7665 3.16342 -68.245 -77.744 3.41333 -68.2597 
-77.7454 3.18742 -67.9888 -77.7922 2.49038 -68.2026 -56.5074 -3.55108 -66.1266 
-56.6791 -3.75231 -66.1269 -56.6954 -3.7328 -65.8429 -56.0806 -3.06167 -66.1253 
-56.975 -4.10381 -66.127 -57.3345 -4.5346 -66.1269 -57.3651 -4.45815 -65.5109 
-57.4433 -4.66549 -66.1268 -58.0337 -5.19045 -65.1768 -58.7061 -5.91429 -64.8584 
-59.3887 -6.62398 -64.5568 -60.0935 -7.33154 -64.2694 -60.8193 -8.04758 -63.9866 
-61.9786 -8.98977 -64.22 -61.5743 -8.75403 -63.7757 -62.5265 -9.52551 -63.7887 
-62.3128 -9.46045 -63.3486 -62.8283 -9.8744 -63.1827 -63.1411 -10.0531 -63.4907 
-63.9132 -10.6577 -63.3546 -65.1198 -11.1673 -63.6556 -64.6132 -11.0474 -63.4181 
-65.3351 -11.3704 -62.9399 -66.0527 -11.6084 -62.645 -66.6226 -11.6587 -63.0595 
-67.9637 -11.8732 -63.6073 -67.3448 -11.8053 -63.3007 -68.1056 -11.972 -62.9302 
-69.0477 -12.0009 -62.7966 -69.8436 -11.9301 -63.0944 -70.317 -11.815 -63.6178 
-70.469 -11.8452 -63.0276 -71.3405 -11.5814 -63.0895 -72.2932 -11.1897 -63.1917 
-73.2843 -10.7425 -63.2725 -74.3083 -10.1296 -63.655 -75.2107 -9.52512 -63.8734 
-76.0941 -8.8894 -64.0062 -76.9406 -8.22348 -64.0565 -77.7417 -7.42836 -64.0599 
-78.2186 -6.61478 -64.3692 -78.5314 -5.0966 -64.897 -78.4884 -5.89438 -64.1581 
-78.2255 -2.42184 -65.6243 -78.4047 -3.2007 -64.7927 -78.5162 -4.13695 -64.8417 
-77.9728 -0.409114 -66.5703 -78.11 -0.807554 -66.0085 -78.1874 -1.53384 -65.5976 
-77.8812 1.17444 -66.7755 -78.0059 0.540981 -65.9896 -78.0819 -0.208982 -66.0045 
-77.857 2.54778 -67.2579 -77.9287 1.9168 -66.5605 -77.6752 3.93831 -67.8646 
-77.828 3.29456 -67.0794 -77.6904 3.88312 -68.2865 -77.551 5.85298 -68.4056 
-77.5468 5.96181 -68.3725 -77.4945 5.28054 -68.3633 -77.5213 5.36651 -67.7521 
-77.5601 5.93655 -68.4118 -77.5781 4.61396 -68.3259 -77.5144 5.08671 -68.3521 
-77.5765 4.69551 -67.7906 -77.6276 4.28158 -68.3079 -77.568 5.96574 -68.4143 
-77.7589 6.60815 -68.4718 -77.7504 6.63652 -68.4461 -77.9273 7.16546 -68.5218 
-78.0775 7.78866 -68.5748 -77.9516 7.22983 -68.0878 -77.7665 6.63476 -68.4741 
-78.1893 8.48539 -68.6296 -78.2017 8.98323 -68.6635 -78.245 8.56807 -68.233 
-78.0883 7.83883 -68.579 -77.9207 10.7308 -68.7567 -77.853 11.0223 -68.7706 
-77.9687 10.7757 -68.4815 -78.1046 9.95461 -68.7199 -78.0881 10.0208 -68.723 
-78.1117 10.0014 -68.6491 -78.1319 9.75203 -68.7087 -76.9073 13.7188 -68.874 
-76.8794 13.7962 -68.8769 -76.9082 13.7758 -68.7988 -77.0391 13.4069 -68.8638 
-75.6678 16.6898 -68.9725 -75.6622 16.7035 -68.9729 -75.6432 16.7414 -68.9564 
-75.6916 16.6384 -68.9709 -54.5862 -1.43764 -66.1147 -54.6977 -1.55607 -66.1157 
-54.7062 -1.54475 -65.9598 -54.2509 -1.0791 -66.112 -55.068 -1.95361 -66.1186 
-55.353 -2.25963 -66.1209 -55.368 -2.20738 -65.6843 -55.5527 -2.47746 -66.1223 
-56.0181 -2.99044 -66.1251 -56.0406 -2.88875 -65.3814 -56.0359 -3.01055 -66.1251 
-56.7172 -3.58904 -65.0557 -57.3923 -4.30636 -64.7162 -58.0619 -5.03431 -64.3755 
-58.7225 -5.76186 -64.0491 -59.366 -6.46734 -63.7583 -60.0164 -7.17413 -63.4477 
-60.7208 -7.93975 -63.1216 -61.4529 -8.72155 -62.8565 -62.1753 -9.45323 -62.6061 
-63.2585 -10.2507 -62.7499 -62.9117 -10.0854 -62.4248 -63.5167 -10.5458 -62.1445 
-47.1322 7.32152 -66.1055 -47.2247 7.09139 -66.0976 -47.1741 7.0996 -65.9669 
-47.2818 6.97381 -66.0944 -47.4279 6.70132 -66.0879 -63.8781 -10.7221 -62.4405 
-64.7538 -11.2541 -62.3848 -65.5999 -11.6404 -62.0871 -46.5982 9.48314 -66.2061 
-46.6306 9.28631 -66.1957 -46.5487 9.31217 -66.0877 -46.6457 9.18673 -66.1903 
-46.7987 8.35202 -66.1472 -46.7516 8.35892 -66.1283 -46.809 8.29712 -66.1444 
-46.8436 8.17499 -66.1391 -66.2594 -11.8978 -61.7781 -66.6179 -11.8168 -62.351 
-66.8617 -12.0136 -61.8499 -46.2156 12.0566 -66.3458 -46.2554 11.4285 -66.3075 
-46.1029 11.6011 -65.8682 -46.3846 10.6571 -66.2668 -46.3992 10.5738 -66.2624 
-46.3453 10.601 -66.2365 -46.4114 10.531 -66.2606 -46.4407 10.3916 -66.2537 
-67.2915 -11.9545 -62.3982 -68.1128 -12.1361 -61.8968 -46.2553 12.6546 -66.3884 
-46.1271 12.6416 -66.0728 -46.3055 12.9827 -66.414 -46.2323 13.3267 -66.139 
-46.3486 13.3067 -66.4388 -46.2158 12.0688 -66.3466 -68.9947 -12.137 -61.8129 
-46.4282 14.0012 -66.4909 -46.2713 14.2205 -65.754 -46.468 14.4422 -66.5232 
-46.4208 14.6871 -66.4978 -46.4885 14.6392 -66.5378 -46.3923 13.7239 -66.4698 
[...]
POINT_DATA 13638
SCALARS scalars float
LOOKUP_TABLE default
-1000 -1000 -1000 -1000 -1000 -1000 -1000 -1000 -1000 
-1000 -1000 -1000 -1000 -1000 -1000 -1000 -1000 -1000 
-1000 -1000 -1000 -1000 -1000 -1000 -1000 -1000 -1000 
-1000 -1000 -1000 -1000 -1000 -1000 -1000 -1000 -1000 
-1000 -1000 -1000 -1000 -1000 -1000 -1000 -1000 -1000 
-1000 -1000 -1000 -1000 -1000 -1000 -1000 -1000 -1000 
-1000 -1000 -1000 -1000 -1000 -1000 -1000 -1000 -1000 
-1000 -1000 -1000 -1000 -1000 -1000 -1000 -1000 -1000 
-1000 -1000 -1000 -1000 -1000 -1000 -1000 -1000 -1000 
-1000 -1000 -1000 -1000 -1000 -1000 -1000 -1000 -1000 
-1000 -1000 -1000 -1000 -1000 -1000 -1000 -1000 -1000 
-1000 -1000 -1000 -1000 -1000 -1000 -1000 -1000 -1000 
-1000 -1000 -1000 -1000 -1000 -1000 -1000 -1000 -1000 
-1000 -1000 -1000 -1000 -1000 -1000 -1000 -1000 -1000 
-1000 -1000 -1000 -1000 -1000 -1000 -1000 -1000 -1000 
-1000 -1000 -1000 -1000 -1000 -1000 -1000 -1000 -1000 
-1000 -1000 -1000 -1000 -1000 -1000 -1000 -1000 -1000 
-1000 -1000 -1000 -1000 -1000 -1000 -1000 -1000 -1000 
-1000 -1000 -1000 -1000 -1000 -1000 -1000 -1000 -1000 
-1000 -1000 -1000 -1000 -1000 -1000 -1000 -1000 -1000 
-1000 -1000 -1000 -1000 -1000 -1000 -1000 -1000 -1000 
-1000 -1000 -1000 -1000 -1000 -1000 -1000 -1000 -1000 
-1000 -1000 -1000 -1000 -1000 -1000 -1000 -1000 -1000 
-1000 -1000 -1000 -1000 -1000 -1000 -1000 -1000 -1000 
-1000 -1000 -1000 -1000 -1000 -1000 -1000 -1000 -1000 
-1000 -1000 -1000 -1000 -1000 -1000 -1000 -1000 -1000 
-1000 -1000 -1000 -1000 -1000 -1000 -1000 -1000 -1000 
-1000 -1000 -1000 -1000 -1000 -1000 -1000 -1000 -1000 
-1000 -1000 -1000 -1000 -1000 -1000 -1000 -1000 -1000 
-1000 -1000 -1000 -1000 -1000 -1000 -1000 -1000 -1000 
-1000 -1000 -1000 -1000 -1000 -1000 -1000 -1000 -1000 
-1000 -1000 -1000 -1000 -1000 -1000 -1000 -1000 -1000 
-1000 -1000 -1000 -1000 -1000 -1000 -1000 -1000 -1000 
-1000 -1000 -1000 -1000 -1000 -1000 -1000 -1000 -1000 
-1000 -1000 -1000 -1000 -1000 -1000 -1000 -1000 -1000 
-1000 -1000 -1000 -1000 -1000 -1000 -1000 -1000 -1000 
-1000 -1000 -1000 -1000 -1000 -1000 -1000 -1000 -1000 
-1000 -1000 -1000 -1000 -1000 -1000 -1000 -1000 -1000 
-1000 -1000 -1000 -1000 -1000 -1000 -1000 -1000 -1000 
-1000 -1000 -1000 -1000 -1000 -1000 -1000 -1000 -1000 
-1000 -1000 -1000 -1000 -1000 -1000 -1000 -1000 -1000 
-1000 -1000 -1000 -1000 -1000 -1000 -1000 -1000 -1000 
-1000 -1000 -1000 -1000 -1000 -1000 -1000 -1000 -1000 
-1000 -1000 -1000 -1000 -1000 -1000 -1000 -1000 -1000 
-1000 -1000 -1000 -1000 -1000 -1000 -1000 -1000 -1000 
-1000 -1000 -1000 -1000 -1000 -1000 -1000 -1000 -1000 
-1000 -1000 -1000 -1000 -1000 -1000 -1000 -1000 -1000 
-1000 -1000 -1000 -1000 -1000 -1000 -1000 -1000 -1000 
-1000 -1000 -1000 -1000 -1000 -1000 -1000 -1000 -1000 
-1000 -1000 -1000 -1000 -1000 -1000 -1000 -1000 -1000 
-1000 -1000 -1000 -1000 -1000 -1000 -1000 -1000 -1000 
-1000 -1000 -1000 -1000 -1000 -1000 -1000 -1000 -1000 
-1000 -1000 -1000 -1000 -1000 -1000 -1000 -1000 -1000 
-1000 -1000 -1000 -1000 -1000 -1000 -1000 -1000 -1000 
-1000 -1000 -1000 -1000 -1000 -1000 -1000 -1000 -1000 
-1000 -1000 -1000 -1000 -1000 -1000 -1000 -1000 -1000 
-1000 -1000 -1000 -1000 -1000 -1000 -1000 -1000 -1000 
-1000 -1000 -1000 -1000 -1000 -1000 -1000 -1000 -1000 
-1000 -1000 -1000 -1000 -1000 -1000 -1000 -1000 -1000 
-1000 -1000 -1000 -1000 -1000 -1000 -1000 -1000 -1000 
-1000 -1000 -1000 -1000 -1000 -1000 -1000 -1000 -1000 
-1000 -1000 -1000 -1000 -1000 -1000 -1000 -1000 -1000 
-1000 -1000 -1000 -1000 -1000 -1000 -1000 -1000 -1000 
-1000 -1000 -1000 -1000 -1000 -1000 -1000 -1000 -1000 
-1000 -1000 -1000 -1000 -1000 -1000 -1000 -1000 -1000 
-1000 -1000 -1000 -1000 -1000 -1000 -1000 -1000 -1000 
-1000 -1000 -1000 -1000 -1000 -1000 -1000 -1000 -1000 
-1000 -1000 -1000 -1000 -1000 -1000 -1000 -1000 -1000 
-1000 -1000 -1000 -1000 -1000 -1000 -1000 -1000 -1000 
-1000 -1000 -1000 -1000 -1000 -1000 -1000 -1000 -1000 
-1000 -1000 -1000 -1000 -1000 -1000 -1000 -1000 -1000 
-1000 -1000 -1000 -1000 -1000 -1000 -1000 -1000 -1000 
-1000 -1000 -1000 -1000 -1000 -1000 -1000 -1000 -1000 
-1000 -1000 -1000 -1000 -1000 -1000 -1000 -1000 -1000 
-1000 -1000 -1000 -1000 -1000 -1000 -1000 -1000 -1000 
-1000 -1000 -1000 -1000 -1000 -1000 -1000 -1000 -1000 
-1000 -1000 -1000 -1000 -1000 -1000 -1000 -1000 -1000 
-1000 -1000 -1000 -1000 -1000 -1000 -1000 -1000 -1000 
-1000 -1000 -1000 -1000 -1000 -1000 -1000 -1000 -1000 
-1000 -1000 -1000 -1000 -1000 -1000 -1000 -1000 -1000 
-1000 -1000 -1000 -1000 -1000 -1000 -1000 -1000 -1000 
-1000 -1000 -1000 -1000 -1000 -1000 -1000 -1000 -1000 
-1000 -1000 -1000 -1000 -1000 -1000 -1000 -1000 -1000 
-1000 -1000 -1000 -1000 -1000 -1000 -1000 -1000 -1000 
-1000 -1000 -1000 -1000 -1000 -1000 -1000 -1000 -1000 
-1000 -1000 -1000 -1000 -1000 -1000 -1000 -1000 -1000 
-1000 -1000 -1000 -1000 -1000 -1000 -1000 -1000 -1000 
-1000 -1000 -1000 -1000 -1000 -1000 -1000 -1000 -1000 
-1000 -1000 -1000 -1000 -1000 -1000 -1000 -1000 -1000 
-1000 -1000 -1000 -1000 -1000 -1000 -1000 -1000 -1000 
-1000 -1000 -1000 -1000 -1000 -1000 -1000 -1000 -1000 
-1000 -1000 -1000 -1000 -1000 -1000 -1000 -1000 -1000 
-1000 -1000 -1000 -1000 -1000 -1000 -1000 -1000 -1000 
-1000 -1000 -1000 -1000 -1000 -1000 -1000 -1000 -1000 
-1000 -1000 -1000 -1000 -1000 -1000 -1000 -1000 -1000 
-1000 -1000 -1000 -1000 -1000 -1000 -1000 -1000 -1000 
-1000 -1000 -1000 -1000 -1000 -1000 -1000 -1000 -1000 
-1000 -1000 -1000 -1000 -1000 -1000 -1000 -1000 -1000 
-1000 -1000 -1000 -1000 -1000 -1000 -1000 -1000 -1000 
-1000 -1000 -1000 -1000 -1000 -1000 -1000 -1000 -1000 
-1000 -1000 -1000 -1000 -1000 -1000 -1000 -1000 -1000 
-1000 -1000 -1000 -1000 -1000 -1000 -1000 -1000 -1000 
-1000 -1000 -1000 -1000 -1000 -1000 -1000 -1000 -1000 
-1000 -1000 -1000 -1000 -1000 -1000 -1000 -1000 -1000 
-1000 -1000 -1000 -1000 -1000 -1000 -1000 -1000 -1000 
-1000 -1000 -1000 -1000 -1000 -1000 -1000 -1000 -1000 
-1000 -1000 -1000 -1000 -1000 -1000 -1000 -1000 -1000 
-1000 -1000 -1000 -1000 -1000 -1000 -1000 -1000 -1000 
-1000 -1000 -1000 -1000 -1000 -1000 -1000 -1000 -1000 
-1000 -1000 -1000 -1000 -1000 -1000 -1000 -1000 -1000 
-1000 -1000 -1000 -1000 -1000 -1000 -1000 -1000 -1000 
-1000 -1000 -1000 -1000 -1000 -1000 -1000 -1000 -1000 
-1000 -1000 -1000 -1000 -1000 -1000 -1000 -1000 -1000 
-1000 -1000 -1000 -1000 -1000 -1000 -1000 -1000 -1000 
-1000 -1000 -1000 -1000 -1000 -1000 -1000 -1000 -1000 
-1000 -1000 -1000 -1000 -1000 -1000 -1000 -1000 -1000 
-1000 -1000 -1000 -1000 -1000 -1000 -1000 -1000 -1000 
-1000 -1000 -1000 -1000 -1000 -1000 -1000 -1000 -1000 
-1000 -1000 -1000 -1000 -1000 -1000 -1000 -1000 -1000 
-1000 -1000 -1000 -1000 -1000 -1000 -1000 -1000 -1000 
-1000 -1000 -1000 -1000 -1000 -1000 -1000 -1000 -1000 
-1000 -1000 -1000 -1000 -1000 -1000 -1000 -1000 -1000 
-1000 -1000 -1000 -1000 -1000 -1000 -1000 -1000 -1000 
-1000 -1000 -1000 -1000 -1000 -1000 -1000 -1000 -1000 
-1000 -1000 -1000 -1000 -1000 -1000 -1000 -1000 -1000 
-1000 -1000 -1000 -1000 -1000 -1000 -1000 -1000 -1000 
-1000 -1000 -1000 -1000 -1000 -1000 -1000 -1000 -1000 
-1000 -1000 -1000 -1000 -1000 -1000 -1000 -1000 -1000 
-1000 -1000 -1000 -1000 -1000 -1000 -1000 -1000 -1000 
-1000 -1000 -1000 -1000 -1000 -1000 -1000 -1000 -1000 
-1000 -1000 -1000 -1000 -1000 -1000 -1000 -1000 -1000 
-1000 -1000 -1000 -1000 -1000 -1000 -1000 -1000 -1000 
-1000 -1000 -1000 -1000 -1000 -1000 -1000 -1000 -1000 
-1000 -1000 -1000 -1000 -1000 -1000 -1000 -1000 -1000 
-1000 -1000 -1000 -1000 -1000 -1000 -1000 -1000 -1000 
-1000 -1000 -1000 -1000 -1000 -1000 -1000 -1000 -1000 
-1000 -1000 -1000 -1000 -1000 -1000 -1000 -1000 -1000 
-1000 -1000 -1000 -1000 -1000 -1000 -1000 -1000 -1000 
-1000 -1000 -1000 -1000 -1000 -1000 -1000 -1000 -1000 
-1000 -1000 -1000 -1000 -1000 -1000 -1000 -1000 -1000 
-1000 -1000 -1000 -1000 -1000 -1000 -1000 -1000 -1000 
-1000 -1000 -1000 -1000 -1000 -1000 -1000 -1000 -1000 
-1000 -1000 -1000 -1000 -1000 -1000 -1000 -1000 -1000 
-1000 -1000 -1000 -1000 -1000 -1000 -1000 -1000 -1000 
-1000 -1000 -1000 -1000 -1000 -1000 -1000 -1000 -1000 
-1000 -1000 -1000 -1000 -1000 -1000 -1000 -1000 -1000 
-1000 -1000 -1000 -1000 -1000 -1000 -1000 -1000 -1000 
-1000 -1000 -1000 -1000 -1000 -1000 -1000 -1000 -1000 
-1000 -1000 -1000 -1000 -1000 -1000 -1000 -1000 -1000 
-1000 -1000 -1000 -1000 -1000 -1000 -1000 -1000 -1000 
-1000 -1000 -1000 -1000 -1000 -1000 -1000 -1000 -1000 
-1000 -1000 -1000 -1000 -1000 -1000 -1000 -1000 -1000 
-1000 -1000 -1000 -1000 -1000 -1000 -1000 -1000 -1000 
-1000 -1000 -1000 -1000 -1000 -1000 -1000 -1000 -1000 
-1000 -1000 -1000 -1000 -1000 -1000 -1000 -1000 -1000 
-1000 -1000 -1000 -1000 -1000 -1000 -1000 -1000 -1000 
-1000 -1000 -1000 -1000 -1000 -1000 -1000 -1000 -1000 
-1000 -1000 -1000 -1000 -1000 -1000 -1000 -1000 -1000 
-1000 -1000 -1000 -1000 -1000 -1000 -1000 -1000 -1000 
-1000 -1000 -1000 -1000 -1000 -1000 -1000 -1000 -1000 
-1000 -1000 -1000 -1000 -1000 -1000 -1000 -1000 -1000 
-1000 -1000 -1000 -1000 -1000 -1000 -1000 -1000 -1000 
-1000 -1000 -1000 -1000 -1000 -1000 -1000 -1000 -1000 
-1000 -1000 -1000 -1000 -1000 -1000 -1000 -1000 -1000 
-1000 -1000 -1000 -1000 -1000 -1000 -1000 -1000 -1000 
-1000 -1000 -1000 -1000 -1000 -1000 -1000 -1000 -1000 
-1000 -1000 -1000 -1000 -1000 -1000 -1000 -1000 -1000 
-1000 -1000 -1000 -1000 -1000 -1000 -1000 -1000 -1000 
-1000 -1000 -1000 -1000 -1000 -1000 -1000 -1000 -1000 
-1000 -1000 -1000 -1000 -1000 -1000 -1000 -1000 -1000 
-1000 -1000 -1000 -1000 -1000 -1000 -1000 -1000 -1000 
-1000 -1000 -1000 -1000 -1000 -1000 -1000 -1000 -1000 
-1000 -1000 -1000 -1000 -1000 -1000 -1000 -1000 -1000 
-1000 -1000 -1000 -1000 -1000 -1000 -1000 -1000 -1000 
-1000 -1000 -1000 -1000 -1000 -1000 -1000 -1000 -1000 
-1000 -1000 -1000 -1000 -1000 -1000 -1000 -1000 -1000 
-1000 -1000 -1000 -1000 -1000 -1000 -1000 -1000 -1000 
-1000 -1000 -1000 -1000 -1000 -1000 -1000 -1000 -1000 
-1000 -1000 -1000 -1000 -1000 -1000 -1000 -1000 -1000 
-1000 -1000 -1000 -1000 -1000 -1000 -1000 -1000 -1000 
-1000 -1000 -1000 -1000 -1000 -1000 -1000 -1000 -1000 
-1000 -1000 -1000 -1000 -1000 -1000 -1000 -1000 -1000 
-1000 -1000 -1000 -1000 -1000 -1000 -1000 -1000 -1000 
-1000 -1000 -1000 -1000 -1000 -1000 -1000 -1000 -1000 
-1000 -1000 -1000 -1000 -1000 -1000 -1000 -1000 -1000 
-1000 -1000 -1000 -1000 -1000 -1000 -1000 -1000 -1000 
-1000 -1000 -1000 -1000 -1000 -1000 -1000 -1000 -1000 
-1000 -1000 -1000 -1000 -1000 -1000 -1000 -1000 -1000 
-1000 -1000 -1000 -1000 -1000 -1000 -1000 -1000 -1000 
-1000 -1000 -1000 -1000 -1000 -1000 -1000 -1000 -1000 
-1000 -1000 -1000 -1000 -1000 -1000 -1000 -1000 -1000 
-1000 -1000 -1000 -1000 -1000 -1000 -1000 -1000 -1000 
-1000 -1000 -1000 -1000 -1000 -1000 -1000 -1000 -1000 
-1000 -1000 -1000 -1000 -1000 -1000 -1000 -1000 -1000 
-1000 -1000 -1000 -1000 -1000 -1000 -1000 -1000 -1000 
-1000 -1000 -1000 -1000 -1000 -1000 -1000 -1000 -1000 
-1000 -1000 -1000 -1000 -1000 -1000 -1000 -1000 -1000 
-1000 -1000 -1000 -1000 -1000 -1000 -1000 -1000 -1000 
-1000 -1000 -1000 -1000 -1000 -1000 -1000 -1000 -1000 
-1000 -1000 -1000 -1000 -1000 -1000 -1000 -1000 -1000 
-1000 -1000 -1000 -1000 -1000 -1000 -1000 -1000 -1000 
-1000 -1000 -1000 -1000 -1000 -1000 -1000 -1000 -1000 
-1000 -1000 -1000 -1000 -1000 -1000 -1000 -1000 -1000 
-1000 -1000 -1000 -1000 -1000 -1000 -1000 -1000 -1000 
-1000 -1000 -1000 -1000 -1000 -1000 -1000 -1000 -1000 
-1000 -1000 -1000 -1000 -1000 -1000 -1000 -1000 -1000 
-1000 -1000 -1000 -1000 -1000 -1000 -1000 -1000 -1000 
-1000 -1000 -1000 -1000 -1000 -1000 -1000 -1000 -1000 
-1000 -1000 -1000 -1000 -1000 -1000 -1000 -1000 -1000 
-1000 -1000 -1000 -1000 -1000 -1000 -1000 -1000 -1000 
-1000 -1000 -1000 -1000 -1000 -1000 -1000 -1000 -1000 
-1000 -1000 -1000 -1000 -1000 -1000 -1000 -1000 -1000 
-1000 -1000 -1000 -1000 -1000 -1000 -1000 -1000 -1000 
-1000 -1000 -1000 -1000 -1000 -1000 -1000 -1000 -1000 
-1000 -1000 -1000 -1000 -1000 -1000 -1000 -1000 -1000 
-1000 -1000 -1000 -1000 -1000 -1000 -1000 -1000 -1000 
-1000 -1000 -1000 -1000 -1000 -1000 -1000 -1000 -1000 
-1000 -1000 -1000 -1000 -1000 -1000 -1000 -1000 -1000 
-1000 -1000 -1000 -1000 -1000 -1000 -1000 -1000 -1000 
-1000 -1000 -1000 -1000 -1000 -1000 -1000 -1000 -1000 
-1000 -1000 -1000 -1000 -1000 -1000 -1000 -1000 -1000 
-1000 -1000 -1000 -1000 -1000 -1000 -1000 -1000 -1000 
-1000 -1000 -1000 -1000 -1000 -1000 -1000 -1000 -1000 
-1000 -1000 -1000 -1000 -1000 -1000 -1000 -1000 -1000 
-1000 -1000 -1000 -1000 -1000 -1000 -1000 -1000 -1000 
-1000 -1000 -1000 -1000 -1000 -1000 -1000 -1000 -1000 
-1000 -1000 -1000 -1000 -1000 -1000 -1000 -1000 -1000 
-1000 -1000 -1000 -1000 -1000 -1000 -1000 -1000 -1000 
-1000 -1000 -1000 -1000 -1000 -1000 -1000 -1000 -1000 
-1000 -1000 -1000 -1000 -1000 -1000 -1000 -1000 -1000 
-1000 -1000 -1000 -1000 -1000 -1000 -1000 -1000 -1000 
-1000 -1000 -1000 -1000 -1000 -1000 -1000 -1000 -1000 
-1000 -1000 -1000 -1000 -1000 -1000 -1000 -1000 -1000 
-1000 -1000 -1000 -1000 -1000 -1000 -1000 -1000 -1000 
-1000 -1000 -1000 -1000 -1000 -1000 -1000 -1000 -1000 
-1000 -1000 -1000 -1000 -1000 -1000 -1000 -1000 -1000 
-1000 -1000 -1000 -1000 -1000 -1000 -1000 -1000 -1000 
-1000 -1000 -1000 -1000 -1000 -1000 -1000 -1000 -1000 
-1000 -1000 -1000 -1000 -1000 -1000 -1000 -1000 -1000 
-1000 -1000 -1000 -1000 -1000 -1000 -1000 -1000 -1000 
-1000 -1000 -1000 -1000 -1000 -1000 -1000 -1000 -1000 
-1000 -1000 -1000 -1000 -1000 -1000 -1000 -1000 -1000 
-1000 -1000 -1000 -1000 -1000 -1000 -1000 -1000 -1000 
-1000 -1000 -1000 -1000 -1000 -1000 -1000 -1000 -1000 
-1000 -1000 -1000 -1000 -1000 -1000 -1000 -1000 -1000 
-1000 -1000 -1000 -1000 -1000 -1000 -1000 -1000 -1000 
-1000 -1000 -1000 -1000 -1000 -1000 -1000 -1000 -1000 
-1000 -1000 -1000 -1000 -1000 -1000 -1000 -1000 -1000 
-1000 -1000 -1000 -1000 -1000 -1000 -1000 -1000 -1000 
-1000 -1000 -1000 -1000 -1000 -1000 -1000 -1000 -1000 
-1000 -1000 -1000 -1000 -1000 -1000 -1000 -1000 -1000 
-1000 -1000 -1000 -1000 -1000 -1000 -1000 -1000 -1000 
-1000 -1000 -1000 -1000 -1000 -1000 -1000 -1000 -1000 
-1000 -1000 -1000 -1000 -1000 -1000 -1000 -1000 -1000 
-1000 -1000 -1000 -1000 -1000 -1000 -1000 -1000 -1000 
-1000 -1000 -1000 -1000 -1000 -1000 -1000 -1000 -1000 
-1000 -1000 -1000 -1000 -1000 -1000 -1000 -1000 -1000 
-1000 -1000 -1000 -1000 -1000 -1000 -1000 -1000 -1000 
-1000 -1000 -1000 -1000 -1000 -1000 -1000 -1000 -1000 
-1000 -1000 -1000 -1000 -1000 -1000 -1000 -1000 -1000 
-1000 -1000 -1000 -1000 -1000 -1000 -1000 -1000 -1000 
-1000 -1000 -1000 -1000 -1000 -1000 -1000 -1000 -1000 
-1000 -1000 -1000 -1000 -1000 -1000 -1000 -1000 -1000 
-1000 -1000 -1000 -1000 -1000 -1000 -1000 -1000 -1000 
-1000 -1000 -1000 -1000 -1000 -1000 -1000 -1000 -1000 
-1000 -1000 -1000 -1000 -1000 -1000 -1000 -1000 -1000 
-1000 -1000 -1000 -1000 -1000 -1000 -1000 -1000 -1000 
-1000 -1000 -1000 -1000 -1000 -1000 -1000 -1000 -1000 
-1000 -1000 -1000 -1000 -1000 -1000 -1000 -1000 -1000 
-1000 -1000 -1000 -1000 -1000 -1000 -1000 -1000 -1000 
-1000 -1000 -1000 -1000 -1000 -1000 -1000 -1000 -1000 
-1000 -1000 -1000 -1000 -1000 -1000 -1000 -1000 -1000 
-1000 -1000 -1000 -1000 -1000 -1000 -1000 -1000 -1000 
-1000 -1000 -1000 -1000 -1000 -1000 -1000 -1000 -1000 
-1000 -1000 -1000 -1000 -1000 -1000 -1000 -1000 -1000 
-1000 -1000 -1000 -1000 -1000 -1000 -1000 -1000 -1000 
-1000 -1000 -1000 -1000 -1000 -1000 -1000 -1000 -1000 
-1000 -1000 -1000 -1000 -1000 -1000 -1000 -1000 -1000 
-1000 -1000 -1000 -1000 -1000 -1000 -1000 -1000 -1000 
-1000 -1000 -1000 -1000 -1000 -1000 -1000 -1000 -1000 
-1000 -1000 -1000 -1000 -1000 -1000 -1000 -1000 -1000 
-1000 -1000 -1000 -1000 -1000 -1000 -1000 -1000 -1000 
-1000 -1000 -1000 -1000 -1000 -1000 -1000 -1000 -1000 
-1000 -1000 -1000 -1000 -1000 -1000 -1000 -1000 -1000 
-1000 -1000 -1000 -1000 -1000 -1000 -1000 -1000 -1000 
-1000 -1000 -1000 -1000 -1000 -1000 -1000 -1000 -1000 
-1000 -1000 -1000 -1000 -1000 -1000 -1000 -1000 -1000 
-1000 -1000 -1000 -1000 -1000 -1000 -1000 -1000 -1000 
-1000 -1000 -1000 -1000 -1000 -1000 -1000 -1000 -1000 
-1000 -1000 -1000 -1000 -1000 -1000 -1000 -1000 -1000 
-1000 -1000 -1000 -1000 -1000 -1000 -1000 -1000 -1000 
-1000 -1000 -1000 -1000 -1000 -1000 -1000 -1000 -1000 
-1000 -1000 -1000 -1000 -1000 -1000 -1000 -1000 -1000 
-1000 -1000 -1000 -1000 -1000 -1000 -1000 -1000 -1000 
-1000 -1000 -1000 -1000 -1000 -1000 -1000 -1000 -1000 
-1000 -1000 -1000 -1000 -1000 -1000 -1000 -1000 -1000 
-1000 -1000 -1000 -1000 -1000 -1000 -1000 -1000 -1000 
-1000 -1000 -1000 -1000 -1000 -1000 -1000 -1000 -1000 
-1000 -1000 -1000 -1000 -1000 -1000 -1000 -1000 -1000 
-1000 -1000 -1000 -1000 -1000 -1000 -1000 -1000 -1000 
-1000 -1000 -1000 -1000 -1000 -1000 -1000 -1000 -1000 
-1000 -1000 -1000 -1000 -1000 -1000 -1000 -1000 -1000 
-1000 -1000 -1000 -1000 -1000 -1000 -1000 -1000 -1000 
-1000 -1000 -1000 -1000 -1000 -1000 -1000 -1000 -1000 
-1000 -1000 -1000 -1000 -1000 -1000 -1000 -1000 -1000 
-1000 -1000 -1000 -1000 -1000 -1000 -1000 -1000 -1000 
-1000 -1000 -1000 -1000 -1000 -1000 -1000 -1000 -1000 
-1000 -1000 -1000 -1000 -1000 -1000 -1000 -1000 -1000 
-1000 -1000 -1000 -1000 -1000 -1000 -1000 -1000 -1000 
-1000 -1000 -1000 -1000 -1000 -1000 -1000 -1000 -1000 
-1000 -1000 -1000 -1000 -1000 -1000 -1000 -1000 -1000 
-1000 -1000 -1000 -1000 -1000 -1000 -1000 -1000 -1000 
-1000 -1000 -1000 -1000 -1000 -1000 -1000 -1000 -1000 
-1000 -1000 -1000 -1000 -1000 -1000 -1000 -1000 -1000 
-1000 -1000 -1000 -1000 -1000 -1000 -1000 -1000 -1000 
-1000 -1000 -1000 -1000 -1000 -1000 -1000 -1000 -1000 
-1000 -1000 -1000 -1000 -1000 -1000 -1000 -1000 -1000 
-1000 -1000 -1000 -1000 -1000 -1000 -1000 -1000 -1000 
-1000 -1000 -1000 -1000 -1000 -1000 -1000 -1000 -1000 
-1000 -1000 -1000 -1000 -1000 -1000 -1000 -1000 -1000 
-1000 -1000 -1000 -1000 -1000 -1000 -1000 -1000 -1000 
-1000 -1000 -1000 -1000 -1000 -1000 -1000 -1000 -1000 
-1000 -1000 -1000 -1000 -1000 -1000 -1000 -1000 -1000 
-1000 -1000 -1000 -1000 -1000 -1000 -1000 -1000 -1000 
-1000 -1000 -1000 -1000 -1000 -1000 -1000 -1000 -1000 
-1000 -1000 -1000 -1000 -1000 -1000 -1000 -1000 -1000 
-1000 -1000 -1000 -1000 -1000 -1000 -1000 -1000 -1000 
-1000 -1000 -1000 -1000 -1000 -1000 -1000 -1000 -1000 
-1000 -1000 -1000 -1000 -1000 -1000 -1000 -1000 -1000 
-1000 -1000 -1000 -1000 -1000 -1000 -1000 -1000 -1000 
-1000 -1000 -1000 -1000 -1000 -1000 -1000 -1000 -1000 
-1000 -1000 -1000 -1000 -1000 -1000 -1000 -1000 -1000 
-1000 -1000 -1000 -1000 -1000 -1000 -1000 -1000 -1000 
-1000 -1000 -1000 -1000 -1000 -1000 -1000 -1000 -1000 
-1000 -1000 -1000 -1000 -1000 -1000 -1000 -1000 -1000 
-1000 -1000 -1000 -1000 -1000 -1000 -1000 -1000 -1000 
-1000 -1000 -1000 -1000 -1000 -1000 -1000 -1000 -1000 
-1000 -1000 -1000 -1000 -1000 -1000 -1000 -1000 -1000 
-1000 -1000 -1000 -1000 -1000 -1000 -1000 -1000 -1000 
-1000 -1000 -1000 -1000 -1000 -1000 -1000 -1000 -1000 
-1000 -1000 -1000 -1000 -1000 -1000 -1000 -1000 -1000 
-1000 -1000 -1000 -1000 -1000 -1000 -1000 -1000 -1000 
-1000 -1000 -1000 -1000 -1000 -1000 -1000 -1000 -1000 
-1000 -1000 -1000 -1000 -1000 -1000 -1000 -1000 -1000 
-1000 -1000 -1000 -1000 -1000 -1000 -1000 -1000 -1000 
-1000 -1000 -1000 -1000 -1000 -1000 -1000 -1000 -1000 
-1000 -1000 -1000 -1000 -1000 -1000 -1000 -1000 -1000 
-1000 -1000 -1000 -1000 -1000 -1000 -1000 -1000 -1000 
-1000 -1000 -1000 -1000 -1000 -1000 -1000 -1000 -1000 
-1000 -1000 -1000 -1000 -1000 -1000 -1000 -1000 -1000 
-1000 -1000 -1000 -1000 -1000 -1000 -1000 -1000 -1000 
-1000 -1000 -1000 -1000 -1000 -1000 -1000 -1000 -1000 
-1000 -1000 -1000 -1000 -1000 -1000 -1000 -1000 -1000 
-1000 -1000 -1000 -1000 -1000 -1000 -1000 -1000 -1000 
-1000 -1000 -1000 -1000 -1000 -1000 -1000 -1000 -1000 
-1000 -1000 -1000 -1000 -1000 -1000 -1000 -1000 -1000 